
                                 *****************
                                 * O   R   C   A *
                                 *****************

                                            #,                                       
                                            ###                                      
                                            ####                                     
                                            #####                                    
                                            ######                                   
                                           ########,                                 
                                     ,,################,,,,,                         
                               ,,#################################,,                 
                          ,,##########################################,,             
                       ,#########################################, ''#####,          
                    ,#############################################,,   '####,        
                  ,##################################################,,,,####,       
                ,###########''''           ''''###############################       
              ,#####''   ,,,,##########,,,,          '''####'''          '####       
            ,##' ,,,,###########################,,,                        '##       
           ' ,,###''''                  '''############,,,                           
         ,,##''                                '''############,,,,        ,,,,,,###''
      ,#''                                            '''#######################'''  
     '                                                          ''''####''''         
             ,#######,   #######,   ,#######,      ##                                
            ,#'     '#,  ##    ##  ,#'     '#,    #''#        ,####,    ,#,          
            ##       ##  ##   ,#'  ##            #'  '#       #'       ,# #          
            ##       ##  #######   ##           ,######,      #####,      #          
            '#,     ,#'  ##    ##  '#,     ,#' ,#      #,     #,   #      #          
             '#######'   ##     ##  '#######'  #'      '#     '####' #    #          



                #########################################################
                #                        -***-                          #
                #          Department of theory and spectroscopy        #
                #                                                       #
                #                      Frank Neese                      #
                #                                                       #
                #     Directorship, Architecture, Infrastructure        #
                #                    SHARK, DRIVERS                     #
                #        Core code/Algorithms in most modules           #
                #                                                       #
                #        Max Planck Institute fuer Kohlenforschung      #
                #                Kaiser Wilhelm Platz 1                 #
                #                 D-45470 Muelheim/Ruhr                 #
                #                      Germany                          #
                #                                                       #
                #                  All rights reserved                  #
                #                        -***-                          #
                #########################################################


                         Program Version 6.1.0  -  RELEASE   -
                                (GIT: $679e74b$)
                          ($2025-06-10 18:02:51 +0200$)


 With contributions from (in alphabetic order):
[Max-Planck-Institut fuer Kohlenforschung]                               
  Daniel Aravena         : Magnetic Suceptibility                        
  Michael Atanasov       : Ab Initio Ligand Field Theory (pilot matlab implementation)
  Alexander A. Auer      : GIAO ZORA, VPT2 properties, NMR spectrum      
  Ute Becker             : All parallelization in ORCA, NUMFREQ, NUMCALC 
  Giovanni Bistoni       : ED, misc. LED, open-shell LED, HFLD           
  Dmytro Bykov           : pre 5.0 version of the SCF Hessian            
  Marcos Casanova-Páez   : Triplet and SCS-CIS(D). UHF-(DLPNO)-IP/EA/STEOM-CCSD. UHF-CVS-IP/STEOM-CCSD   
  Vijay G. Chilkuri      : MRCI spin determinant printing, contributions to CSF-ICE 
  Pauline Colinet        : FMM embedding                                 
  Dipayan Datta          : RHF DLPNO-CCSD density                        
  Achintya Kumar Dutta   : EOM-CC, STEOM-CC                              
  Nicolas Foglia         : Exact transition moments, OPA infrastructure, MCD improvements    
  Dmitry Ganyushin       : Spin-Orbit,Spin-Spin,Magnetic field MRCI      
  Miquel Garcia-Rates    : C-PCM and meta-GGA Hessian, CCSD/C-PCM, Gaussian charge scheme 
  Tiago L. C. Gouveia    : GS-ROHF, GS-ROCIS                             
  Yang Guo               : DLPNO-NEVPT2, F12-NEVPT2, CIM, IAO-localization        
  Andreas Hansen         : Spin unrestricted coupled pair/coupled cluster methods 
  Ingolf Harden          : AUTO-CI MPn and infrastructure                
  Benjamin Helmich-Paris : MC-RPA, TRAH-(SCF,CASSCF), AVAS, COSX integrals, SCF dyn. polar., MC-PDFT, srDFT 
  Lee Huntington         : MR-EOM, pCC                                   
  Robert Izsak           : Overlap fitted RIJCOSX, COSX-SCS-MP3, EOM     
  Riya Kayal             : Wick's Theorem for AUTO-CI, AUTO-CI UHF-CCSDT 
  Emily Kempfer          : AUTO-CI RHF CISDT and CCSDT, approximate NEVPT4
  Christian Kollmar      : KDIIS, OOCD, Brueckner-CCSD(T), CCSD density, CASPT2, CASPT2-K, improved NEVPT2 
  Axel Koslowski         : Symmetry handling                             
  Simone Kossmann        : meta-GGA functionals, TD-DFT gradient, OOMP2, (MP2 Hessian; deprecated post 5.0) 
  Lucas Lang             : DCDCAS, Hyperfine gauge corrections, ICE-SOC+SSC
  Marvin Lechner         : AUTO-CI (C++ implementation), FIC-MRCC        
  Spencer Leger          : CASSCF response                               
  Dagmar Lenk            : GEPOL surface, SMD, ORCA-2-JSON               
  Dimitrios Liakos       : Extrapolation schemes; Compound Job, Property file
  Dimitrios Manganas     : Further ROCIS development; embedding schemes. LFT, Crystal Embedding 
  Dimitrios Pantazis     : SARC Basis sets                               
  Anastasios Papadopoulos: AUTO-CI, single reference methods and gradients 
  Taras Petrenko         : pre 6.0 DFT Hessian and TD-DFT gradient,  ECA, NRVS 
  Petra Pikulova         : Analytic Raman intensities                    
  Peter Pinski           : DLPNO-MP2, DLPNO-MP2 Gradient                 
  Shashank Vittal Rao    : ES-AILFT, MagRelax                            
  Christoph Reimann      : Effective Core Potentials                     
  Marius Retegan         : Local ZFS, SOC                                
  Christoph Riplinger    : Optimizer, TS searches, QM/MM, DLPNO-CCSD(T), (RO)-DLPNO pert. Triples 
  Michael Roemelt        : Original ROCIS implementation, recursive CI coupling coefficients
  Masaaki Saitow         : Open-shell DLPNO-CCSD energy and density      
  Barbara Sandhoefer     : DKH picture change effects                    
  Yorick L. A. Schmerwitz: GMF and freeze-and-release deltaSCF, NEB S-IDPP initial path                    
  Kantharuban Sivalingam : CASSCF convergence/infrastructure, NEVPT2, NEVPT3, NEVPT4(SD), FIC-MRCI and CEPA variants
  Bernardo de Souza      : ESD, SOC TD-DFT                               
  Georgi L. Stoychev     : AutoAux, RI-MP2 NMR, DLPNO-MP2 response, X2C  
  Van Anh Tran           : RI-MP2 g-tensors                              
  Willem Van den Heuvel  : Paramagnetic NMR                              
  Zikuan Wang            : NOTCH, Electric field optimization            
  Frank Wennmohs         : Technical directorship and infrastructure     
  Hang Xu                : AUTO-CI-Response properties                   
                                                                         
[FACCTs GmbH]                                                            
  Markus Bursch, Nicolas Foglia, Miquel Garcia-Rates, Ingolf Harden, Hagen Neugebauer, Anastasios Papadopoulos, 
  Christoph Riplinger, Bernardo de Souza, Georgi L. Stoychev                                                    
                                                                 
  APM, various basis sets, CI-OPT, improved COSX, DLPNO-Multilevel,           
  DOCKER, DRACO, updates on ESD, Fragmentator, GOAT, IRC, LR-CPCM, L-BFGS, MBIS, meta-GGA TD-DFT gradient, ML-optimized integration grids, 
  MM, NACMEs, nearIR, NEB, NEB-TS, NL-DFT gradient (VV10), 2- and 3-layer-ONIOM, interface openCOSMO-RS, QMMM,   
  Crystal-QMMM, RESP, rigid body optimization, SF, symmetry and pop. for TD-DFT, various functionals, SOLVATOR                                   
                                                                         
[Other institutions]                                                     
  V. Asgeirsson          : NEB                                           
  Christoph Bannwarth    : sTDA-DFT, sTD-DFT, PBEh-3c, B97-3c, D3        
  Giovanni Bistoni       : ETS/NOCV, ADLD/ADEX, COVALED                  
  Martin Brehm           : Molecular dynamics                            
  Ronald Cardenas        : ETS/NOCV                                      
  Martina Colucci        : COVALED                                       
  Sebastian Ehlert       : rSCAN, r2SCAN, r2SCAN-3c, D4, dhf basis sets  
  Marvin Friede          : D4 for Fr, Ra, Ac-Lr                          
  Lars Goerigk           : TD-DFT with DH, B97 family of functionals     
  Stefan Grimme          : VdW corrections, initial TS optimization, DFT functionals, gCP, sTDA/sTD-DF 
  Waldemar Hujo          : DFT-NL                                        
  H. Jonsson             : NEB                                           
  Holger Kruse           : gCP                                           
  Marcel Mueller         : wB97X-3c, vDZP basis set                      
  Hagen Neugebauer       : wr2SCAN, Native XTB                           
  Gianluca Regni         : ADLD/ADEX                                     
  Tobias Risthaus        : pre 6.0 range-separated hybrid DFT and stability analysis
  Lukas Wittmann         : regularized MP2, r2SCAN double-hybrids, wr2SCAN        
                                                                         
We gratefully acknowledge several colleagues who have allowed us to      
interface, adapt or use parts of their codes:                            
  Ed Valeev, F. Pavosevic, A. Kumar             : LibInt (2-el integral package), F12 methods 
  Garnet Chan, S. Sharma, J. Yang, R. Olivares  : DMRG                   
  Ulf Ekstrom                                   : XCFun DFT Library      
  Mihaly Kallay                                 : mrcc  (arbitrary order and MRCC methods)
  Frank Weinhold                                : gennbo (NPA and NBO analysis)           
  Simon Mueller                                 : openCOSMO-RS                            
  Christopher J. Cramer and Donald G. Truhlar   : smd solvation model                     
  S Lehtola, MJT Oliveira, MAL Marques          : LibXC Library                           
  Liviu Ungur et al                             : ANISO software                          


 Your calculation uses the libint2 library for the computation of 2-el integrals
 For citations please refer to: http://libint.valeyev.net

 Your ORCA version has been built with support for libXC version: 7.0.0
 For citations please refer to: https://libxc.gitlab.io

 This ORCA versions uses:
   CBLAS   interface :  Fast vector & matrix operations
   LAPACKE interface :  Fast linear algebra routines
   SCALAPACK package :  Parallel linear algebra routines
   Shared memory     :  Shared parallel matrices
   BLAS/LAPACK       :  OpenBLAS 0.3.29  USE64BITINT DYNAMIC_ARCH NO_AFFINITY Haswell SINGLE_THREADED
        Core in use  :  Haswell
   Copyright (c) 2011-2014, The OpenBLAS Project


  ***********************************
  * Starting time: Tue Nov 25 09:32:34 2025
  * Host name:     PC-44
  * Process ID:    14017
  * Working dir.:  /home/m.dutkiewicz/chemia_obliczeniowa/cw_3
  ***********************************

Warning: RI is on but no J-basis has been assigned. Assigning Def2/J (nothing to worry about!)
================================================================================

----- Orbital basis set information -----
Your calculation utilizes the basis: def2-SVP
   F. Weigend and R. Ahlrichs, Phys. Chem. Chem. Phys. 7, 3297 (2005).

----- AuxJ basis set information -----
Your calculation utilizes the auxiliary basis: def2/J
   H-Rn: F. Weigend, Phys. Chem. Chem. Phys. 8, 1057 (2006).
   Fr-Lr: K. Eichkorn, F. Weigend, O. Treutler, R. Ahlrichs; Theor. Chem. Acc. 97, 119 (1997).

================================================================================
                                        WARNINGS
                       Please study these warnings very carefully!
================================================================================


WARNING: Geometry Optimization
  ===> : Switching off AutoStart
         For restart on a previous wavefunction, please use MOREAD

================================================================================
                                       INPUT FILE
================================================================================
NAME = anion.inp
|  1> !B3LYP def2-SVP Opt Largeprint
|  2> * xyz -1 1
|  3>  C        -0.123550        0.104480       -0.226220
|  4>  C        -1.415310        0.077390        0.255680
|  5>  C        -1.796250        1.370450        0.556490
|  6>  C        -0.729120        2.194360        0.256280
|  7>  C         0.301180        1.414870       -0.225860
|  8>  H         0.446190       -0.758000       -0.545470
|  9>  H        -2.019360       -0.812280        0.374010
| 10>  H        -2.753530        1.680640        0.953650
| 11>  H        -0.696420        3.269170        0.375230
| 12>  H         1.268600        1.779270       -0.544750
| 13> *
| 14> 
| 15>                          ****END OF INPUT****
================================================================================

                       *****************************
                       * Geometry Optimization Run *
                       *****************************

Geometry optimization settings:
Update method            Update   .... BFGS
Choice of coordinates    CoordSys .... (2022) Redundant Internals
Initial Hessian          InHess   .... Almloef's Model
Max. no of cycles        MaxIter  .... 50

Convergence Tolerances:
Energy Change            TolE     ....  5.0000e-06 Eh
Max. Gradient            TolMAXG  ....  3.0000e-04 Eh/bohr
RMS Gradient             TolRMSG  ....  1.0000e-04 Eh/bohr
Max. Displacement        TolMAXD  ....  4.0000e-03 bohr
RMS Displacement         TolRMSD  ....  2.0000e-03 bohr
Strict Convergence                .... False

------------------------------------------------------------------------------
                        ORCA OPTIMIZATION COORDINATE SETUP
------------------------------------------------------------------------------

The optimization will be done in redundant internal coordinates (2022)
Making redundant internal coordinates   ...  (2022 redundants) done
Evaluating the initial hessian          ...  (Almloef) done
Evaluating the coordinates              ...  done
Calculating the B-matrix                .... done
Calculating the G-matrix                .... done
The number of degrees of freedom        ....   45

    -----------------------------------------------------------------
                    Redundant Internal Coordinates


    -----------------------------------------------------------------
         Definition                    Initial Value    Approx d2E/dq
    -----------------------------------------------------------------
      1. B(C   1,C   0)                  1.3790         0.650592   
      2. B(C   2,C   1)                  1.3812         0.645417   
      3. B(C   3,C   2)                  1.3812         0.645319   
      4. B(C   4,C   3)                  1.3790         0.650613   
      5. B(C   4,C   0)                  1.3775         0.654146   
      6. B(H   5,C   0)                  1.0818         0.371047   
      7. B(H   6,C   1)                  1.0818         0.371050   
      8. B(H   7,C   2)                  1.0818         0.371083   
      9. B(H   8,C   3)                  1.0819         0.371022   
     10. B(H   9,C   4)                  1.0818         0.371057   
     11. A(C   1,C   0,H   5)          125.5059         0.357616   
     12. A(C   4,C   0,H   5)          126.5899         0.357948   
     13. A(C   1,C   0,C   4)          107.9042         0.442107   
     14. A(C   0,C   1,H   6)          125.2687         0.357617   
     15. A(C   0,C   1,C   2)          108.4263         0.441035   
     16. A(C   2,C   1,H   6)          126.3051         0.357131   
     17. A(C   3,C   2,H   7)          126.3290         0.357128   
     18. A(C   1,C   2,H   7)          126.3315         0.357137   
     19. A(C   1,C   2,C   3)          107.3395         0.440387   
     20. A(C   4,C   3,H   8)          125.2706         0.357614   
     21. A(C   2,C   3,H   8)          126.3048         0.357118   
     22. A(C   2,C   3,C   4)          108.4246         0.441025   
     23. A(C   3,C   4,H   9)          125.5058         0.357620   
     24. A(C   0,C   4,H   9)          126.5888         0.357949   
     25. A(C   0,C   4,C   3)          107.9054         0.442110   
     26. D(H   6,C   1,C   0,H   5)      0.0002         0.029475   
     27. D(C   2,C   1,C   0,C   4)      0.0024         0.029475   
     28. D(C   2,C   1,C   0,H   5)   -179.9973         0.029475   
     29. D(H   6,C   1,C   0,C   4)    179.9999         0.029475   
     30. D(C   3,C   2,C   1,H   6)    179.9976         0.028975   
     31. D(H   7,C   2,C   1,C   0)    179.9850         0.028975   
     32. D(C   3,C   2,C   1,C   0)     -0.0049         0.028975   
     33. D(H   7,C   2,C   1,H   6)     -0.0124         0.028975   
     34. D(H   8,C   3,C   2,H   7)      0.0160         0.028966   
     35. D(H   8,C   3,C   2,C   1)   -179.9940         0.028966   
     36. D(C   4,C   3,C   2,H   7)   -179.9843         0.028966   
     37. D(C   4,C   3,C   2,C   1)      0.0057         0.028966   
     38. D(H   9,C   4,C   0,C   1)    179.9985         0.029821   
     39. D(C   3,C   4,C   0,H   5)   -179.9992         0.029821   
     40. D(C   3,C   4,C   0,C   1)      0.0012         0.029821   
     41. D(H   9,C   4,C   3,H   8)     -0.0020         0.029477   
     42. D(H   9,C   4,C   3,C   2)    179.9983         0.029477   
     43. D(C   0,C   4,C   3,H   8)    179.9954         0.029477   
     44. D(C   0,C   4,C   3,C   2)     -0.0042         0.029477   
     45. D(H   9,C   4,C   0,H   5)     -0.0018         0.029821   
    -----------------------------------------------------------------

Number of atoms                         .... 10
Number of degrees of freedom            .... 45


         *************************************************************
         *                GEOMETRY OPTIMIZATION CYCLE   1            *
         *************************************************************
---------------------------------
CARTESIAN COORDINATES (ANGSTROEM)
---------------------------------
  C     -0.123550    0.104480   -0.226220
  C     -1.415310    0.077390    0.255680
  C     -1.796250    1.370450    0.556490
  C     -0.729120    2.194360    0.256280
  C      0.301180    1.414870   -0.225860
  H      0.446190   -0.758000   -0.545470
  H     -2.019360   -0.812280    0.374010
  H     -2.753530    1.680640    0.953650
  H     -0.696420    3.269170    0.375230
  H      1.268600    1.779270   -0.544750

----------------------------
CARTESIAN COORDINATES (A.U.)
----------------------------
  NO LB      ZA    FRAG     MASS         X           Y           Z
   0 C     6.0000    0    12.011   -0.233476    0.197439   -0.427494
   1 C     6.0000    0    12.011   -2.674548    0.146246    0.483165
   2 C     6.0000    0    12.011   -3.394421    2.589775    1.051614
   3 C     6.0000    0    12.011   -1.377837    4.146739    0.484299
   4 C     6.0000    0    12.011    0.569148    2.673717   -0.426814
   5 H     1.0000    0     1.008    0.843177   -1.432412   -1.030789
   6 H     1.0000    0     1.008   -3.816037   -1.534987    0.706776
   7 H     1.0000    0     1.008   -5.203418    3.175949    1.802137
   8 H     1.0000    0     1.008   -1.316043    6.177836    0.709082
   9 H     1.0000    0     1.008    2.397307    3.362333   -1.029428

--------------------------------
INTERNAL COORDINATES (ANGSTROEM)
--------------------------------
 C      0   0   0     0.000000000000     0.00000000     0.00000000
 C      1   0   0     1.378987083224     0.00000000     0.00000000
 C      2   1   0     1.381161143133   108.42625818     0.00000000
 C      3   2   1     1.381202435959   107.33949328     0.00000000
 C      1   2   3     1.377504139595   107.90417585     0.00000000
 H      1   2   3     1.081848409205   125.50588463   180.00270153
 H      2   1   3     1.081846153711   125.26866715   179.99751706
 H      3   2   1     1.081822027923   126.33148388   179.98504156
 H      4   3   2     1.081866409775   126.30478093   180.00600365
 H      5   1   2     1.081840860986   126.58876077   179.99854071

---------------------------
INTERNAL COORDINATES (A.U.)
---------------------------
 C      0   0   0     0.000000000000     0.00000000     0.00000000
 C      1   0   0     2.605907929509     0.00000000     0.00000000
 C      2   1   0     2.610016307335   108.42625818     0.00000000
 C      3   2   1     2.610094339468   107.33949328     0.00000000
 C      1   2   3     2.603105572176   107.90417585     0.00000000
 H      1   2   3     2.044397211816   125.50588463   180.00270153
 H      2   1   3     2.044392949550   125.26866715   179.99751706
 H      3   2   1     2.044347358418   126.33148388   179.98504156
 H      4   3   2     2.044431227964   126.30478093   180.00600365
 H      5   1   2     2.044382947750   126.58876077   179.99854071

---------------------
BASIS SET INFORMATION
---------------------
There are 2 groups of distinct atoms

 Group   1 Type C   : 7s4p1d contracted to 3s2p1d pattern {511/31/1}
 Group   2 Type H   : 4s1p contracted to 2s1p pattern {31/1}

Atom   0C    basis set group =>   1
Atom   1C    basis set group =>   1
Atom   2C    basis set group =>   1
Atom   3C    basis set group =>   1
Atom   4C    basis set group =>   1
Atom   5H    basis set group =>   2
Atom   6H    basis set group =>   2
Atom   7H    basis set group =>   2
Atom   8H    basis set group =>   2
Atom   9H    basis set group =>   2

-------------------------
BASIS SET IN INPUT FORMAT
-------------------------

 # Basis set for element : H 
 NewGTO H 
 S 3 
   1      13.0107010000      0.0334854848
   2       1.9622572000      0.2347218709
   3       0.4445379600      0.8137702853
 S 1 
   1       0.1219496200      1.0000000000
 P 1 
   1       0.8000000000      1.0000000000
  end;

 # Basis set for element : C 
 NewGTO C 
 S 5 
   1    1238.4016938000      0.0055173650
   2     186.2900499200      0.0410888285
   3      42.2511763460      0.1822538213
   4      11.6765579320      0.4682845944
   5       3.5930506482      0.4457581734
 S 1 
   1       0.4024514736      1.0000000000
 S 1 
   1       0.1309018267      1.0000000000
 P 3 
   1       9.4680970621      0.0568883320
   2       2.0103545142      0.3129405934
   3       0.5477100471      0.7606501651
 P 1 
   1       0.1526861379      1.0000000000
 D 1 
   1       0.8000000000      1.0000000000
  end;

---------------------------------
AUXILIARY/J BASIS SET INFORMATION
---------------------------------
There are 2 groups of distinct atoms

 Group   1 Type C   : 12s5p4d2f1g contracted to 6s4p3d1f1g pattern {711111/2111/211/2/1}
 Group   2 Type H   : 5s2p1d contracted to 3s1p1d pattern {311/2/1}

Atom   0C    basis set group =>   1
Atom   1C    basis set group =>   1
Atom   2C    basis set group =>   1
Atom   3C    basis set group =>   1
Atom   4C    basis set group =>   1
Atom   5H    basis set group =>   2
Atom   6H    basis set group =>   2
Atom   7H    basis set group =>   2
Atom   8H    basis set group =>   2
Atom   9H    basis set group =>   2

-------------------------------------
AUXILIARY/J BASIS SET IN INPUT FORMAT
-------------------------------------

 # Auxiliary/J basis set for element : H 
 NewAuxJGTO H 
 S 3 
   1      15.6752927000      0.1007184237
   2       3.6063578000      0.3404257499
   3       1.2080016000      0.6491996172
 S 1 
   1       0.4726794000      1.0000000000
 S 1 
   1       0.2018100000      1.0000000000
 P 2 
   1       2.0281365000      0.5596620919
   2       0.5358730000      0.5596620919
 D 1 
   1       2.2165124000      1.0000000000
  end;

 # Auxiliary/J basis set for element : C 
 NewAuxJGTO C 
 S 7 
   1    1861.0916331000      0.0134602335
   2     642.9939764000      0.0299160374
   3     235.1105725000      0.1008649584
   4      90.7028894000      0.2370970548
   5      36.7794552000      0.3924037254
   6      15.6046273000      0.3195862154
   7       6.8907294000      0.0530104441
 S 1 
   1       3.1478850000     -1.0000000000
 S 1 
   1       1.4777287000      1.0000000000
 S 1 
   1       0.7076466000      1.0000000000
 S 1 
   1       0.3430122000      1.0000000000
 S 1 
   1       0.1669453000      1.0000000000
 P 2 
   1      13.5472892000     -0.6769313712
   2       5.4669419000     -0.3779500978
 P 1 
   1       2.1751721000      1.0000000000
 P 1 
   1       0.8582194000      1.0000000000
 P 1 
   1       0.3376720000      1.0000000000
 D 2 
   1       5.9287253000     -0.3533329857
   2       1.9809209000     -0.7456525731
 D 1 
   1       0.8055417000     -1.0000000000
 D 1 
   1       0.3531244000     -1.0000000000
 F 2 
   1       1.6755626000      0.6311076882
   2       0.5997536000      0.4968166032
 G 1 
   1       1.0024600000     -1.0000000000
  end;

------------------------------------------------------------------------------
                             ORCA STARTUP CALCULATIONS
                           -- RI-GTO INTEGRALS CHOSEN --
------------------------------------------------------------------------------
------------------------------------------------------------------------------
                   ___                                                        
                  /   \      - P O W E R E D   B Y -                         
                 /     \                                                     
                 |  |  |   _    _      __       _____    __    __             
                 |  |  |  | |  | |    /  \     |  _  \  |  |  /  |          
                  \  \/   | |  | |   /    \    | | | |  |  | /  /          
                 / \  \   | |__| |  /  /\  \   | |_| |  |  |/  /          
                |  |  |   |  __  | /  /__\  \  |    /   |      \           
                |  |  |   | |  | | |   __   |  |    \   |  |\   \          
                \     /   | |  | | |  |  |  |  | |\  \  |  | \   \       
                 \___/    |_|  |_| |__|  |__|  |_| \__\ |__|  \__/        
                                                                              
                      - O R C A' S   B I G   F R I E N D -                    
                                      &                                       
                       - I N T E G R A L  F E E D E R -                       
                                                                              
 v1 FN, 2020, v2 2021, v3 2022-2024                                           
------------------------------------------------------------------------------


----------------------
SHARK INTEGRAL PACKAGE
----------------------

Number of atoms                             ...     10
Number of basis functions                   ...     95
Number of shells                            ...     45
Maximum angular momentum                    ...      2
Integral batch strategy                     ... SHARK/LIBINT Hybrid
RI-J (if used) integral strategy            ... SPLIT-RIJ (Revised 2003 algorithm where possible)
Printlevel                                  ...      1
Contraction scheme used                     ... SEGMENTED contraction
Prescreening option                         ... SCHWARTZ
   Thresh                                   ... 2.500e-11
   Tcut                                     ... 2.500e-12
   Tpresel                                  ... 2.500e-12 
Coulomb Range Separation                    ... NOT USED
Exchange Range Separation                   ... NOT USED
Multipole approximations                    ... NOT USED
Finite Nucleus Model                        ... NOT USED
CABS basis                                  ... NOT available
Auxiliary Coulomb fitting basis             ... AVAILABLE
   # of basis functions in Aux-J            ...    300
   # of shells in Aux-J                     ...    100
   Maximum angular momentum in Aux-J        ...      4
Auxiliary J/K fitting basis                 ... NOT available
Auxiliary Correlation fitting basis         ... NOT available
Auxiliary 'external' fitting basis          ... NOT available

Checking pre-screening integrals            ... done (  0.0 sec) Dimension = 45
   => SHARK Basis and OBASIS are compatible. Storing Pre-screening
Shell pair information
Shell pair cut-off parameter TPreSel        ...   2.5e-12
Total number of shell pairs                 ...      1035
Shell pairs after pre-screening             ...      1030
Total number of primitive shell pairs       ...      3735
Primitive shell pairs kept                  ...      3018
          la=0 lb=0:    320 shell pairs
          la=1 lb=0:    375 shell pairs
          la=1 lb=1:    120 shell pairs
          la=2 lb=0:    125 shell pairs
          la=2 lb=1:     75 shell pairs
          la=2 lb=2:     15 shell pairs

Checking whether 4 symmetric matrices of dimension 95 fit in memory
:Max Core in MB      =   4096.00
 MB in use           =      4.62
 MB left             =   4091.38
 MB needed           =      0.14
 Data fit in memory  = YES
Calculating RI/J V-Matrix + Cholesky decomp.... done (  0.0 sec)
Calculating Nuclear repulsion               ... done (  0.0 sec) ENN=    152.142273814596 Eh

Diagonalization of the overlap matrix:
Smallest eigenvalue                        ... 8.294e-04
Time for diagonalization                   ...    0.000 sec
Threshold for overlap eigenvalues          ... 1.000e-07
Number of eigenvalues below threshold      ... 0
Time for construction of square roots      ...    0.000 sec
Total time needed                          ...    0.001 sec

-------------------
DFT GRID GENERATION
-------------------

General Integration Accuracy     IntAcc      ... 4.388
Radial Grid Type                 RadialGrid  ... OptM3 with GC (2021)
Angular Grid (max. ang.)         AngularGrid ... 4 (Lebedev-302)
Angular grid pruning method      GridPruning ... 4 (adaptive)
Weight generation scheme         WeightScheme... mBecke (2022)
Basis function cutoff            BFCut       ... 1.0000e-11
Integration weight cutoff        WCut        ... 1.0000e-14
Partially contracted basis set               ... off
Rotationally invariant grid construction     ... off
Angular grids for H and He will be reduced by one unit

Total number of grid points                  ...    46423
Total number of batches                      ...      733
Average number of points per batch           ...       63
Average number of grid points per atom       ...     4642

--------------------
COSX GRID GENERATION
--------------------

GRIDX 1
-------
General Integration Accuracy     IntAcc      ... 3.816
Radial Grid Type                 RadialGrid  ... OptM3 with GC (2021)
Angular Grid (max. ang.)         AngularGrid ... 1 (Lebedev-50)
Angular grid pruning method      GridPruning ... 4 (adaptive)
Weight generation scheme         WeightScheme... mBecke (2022)
Basis function cutoff            BFCut       ... 1.0000e-11
Integration weight cutoff        WCut        ... 1.0000e-14
Partially contracted basis set               ... on
Rotationally invariant grid construction     ... off
Angular grids for H and He will be reduced by one unit

Total number of grid points                  ...     5945
Total number of batches                      ...       50
Average number of points per batch           ...      118
Average number of grid points per atom       ...      594
UseSFitting                                  ... on

GRIDX 2
-------
General Integration Accuracy     IntAcc      ... 4.020
Radial Grid Type                 RadialGrid  ... OptM3 with GC (2021)
Angular Grid (max. ang.)         AngularGrid ... 2 (Lebedev-110)
Angular grid pruning method      GridPruning ... 4 (adaptive)
Weight generation scheme         WeightScheme... mBecke (2022)
Basis function cutoff            BFCut       ... 1.0000e-11
Integration weight cutoff        WCut        ... 1.0000e-14
Partially contracted basis set               ... on
Rotationally invariant grid construction     ... off
Angular grids for H and He will be reduced by one unit

Total number of grid points                  ...    12993
Total number of batches                      ...      105
Average number of points per batch           ...      123
Average number of grid points per atom       ...     1299
UseSFitting                                  ... on

GRIDX 3
-------
General Integration Accuracy     IntAcc      ... 4.338
Radial Grid Type                 RadialGrid  ... OptM3 with GC (2021)
Angular Grid (max. ang.)         AngularGrid ... 3 (Lebedev-194)
Angular grid pruning method      GridPruning ... 4 (adaptive)
Weight generation scheme         WeightScheme... mBecke (2022)
Basis function cutoff            BFCut       ... 1.0000e-11
Integration weight cutoff        WCut        ... 1.0000e-14
Partially contracted basis set               ... on
Rotationally invariant grid construction     ... off
Angular grids for H and He will be reduced by one unit

Total number of grid points                  ...    28629
Total number of batches                      ...      228
Average number of points per batch           ...      125
Average number of grid points per atom       ...     2863
UseSFitting                                  ... on
Grids setup in   0.2 sec
Initializing property integral containers    ... done (  0.0 sec)

SHARK setup successfully completed in   0.2 seconds

Maximum memory used throughout the entire STARTUP-calculation: 19.0 MB
-------------------------------------------------------------------------------
                                 ORCA GUESS
                   Start orbitals & Density for SCF / CASSCF
-------------------------------------------------------------------------------

------------
SCF SETTINGS
------------
Hamiltonian:
 Density Functional     Method          .... DFT(GTOs)
 Exchange Functional    Exchange        .... B88
   X-Alpha parameter    XAlpha          ....  0.666667
   Becke's b parameter  XBeta           ....  0.004200
 Correlation Functional Correlation     .... LYP
 LDA part of GGA corr.  LDAOpt          .... VWN-5
 Gradients option       PostSCFGGA      .... off
 Hybrid DFT is turned on
   Fraction HF Exchange ScalHFX         ....  0.200000
   Scaling of DF-GGA-X  ScalDFX         ....  0.720000
   Scaling of DF-GGA-C  ScalDFC         ....  0.810000
   Scaling of DF-LDA-C  ScalLDAC        ....  1.000000
   Perturbative correction              ....  0.000000
   NL short-range parameter             ....  4.800000
 RI-approximation to the Coulomb term is turned on
   Number of AuxJ basis functions       .... 300
   RIJ-COSX (HFX calculated with COS-X)).... on


General Settings:
 Integral files         IntName         .... anion
 Hartree-Fock type      HFTyp           .... RHF
 Total Charge           Charge          ....   -1
 Multiplicity           Mult            ....    1
 Number of Electrons    NEL             ....   36
 Basis Dimension        Dim             ....   95
 Nuclear Repulsion      ENuc            ....    152.1422738146 Eh

Convergence Acceleration:
 AO-DIIS                CNVDIIS         .... on
   Start iteration      DIISMaxIt       ....    12
   Startup error        DIISStart       ....  0.200000
   # of expansion vecs  DIISMaxEq       ....     5
   Bias factor          DIISBfac        ....   1.050
   Max. coefficient     DIISMaxC        ....  10.000
 MO-DIIS                CNVKDIIS        .... off
 Trust-Rad. Augm. Hess. CNVTRAH         .... auto
   Auto Start mean grad. ratio tolernc. ....  1.125000
   Auto Start start iteration           ....    50
   Auto Start num. interpolation iter.  ....    10
   Max. Number of Micro iterations      ....    24
   Max. Number of Macro iterations      .... Maxiter - #DIIS iter
   Number of Davidson start vectors     ....     2
   Converg. threshold    (grad. norm)   ....   1.000e-05
   Grad. Scal. Fac. for Micro threshold ....   0.100
   Minimum threshold for Micro iter.    ....   1.000e-02
   NR start threshold (gradient norm)   ....   1.000e-04
   Initial trust radius                 ....   0.400
   Minimum AH scaling param. (alpha)    ....   1.000
   Maximum AH scaling param. (alpha)    .... 1000.000
   Quad. conv. algorithm                .... NR
   White noise on init. David. guess    .... on
   Maximum white noise                  ....   0.010
   Pseudo random numbers                .... off
   Inactive MOs                         .... canonical
   Orbital update algorithm             .... Taylor
   Preconditioner                       .... Diag
   Full preconditioner red. dimension   ....   250
 SOSCF                 CNVSOSCF           .... on
   Start iteration     SOSCFMaxIt         ....   150
   Startup grad/error  SOSCFStart         ....  0.003300
   Hessian update      SOSCFHessUp        .... L-BFGS
   Autom. constraints  SOSCFAutoConstrain .... off
 Level Shifting         CNVShift        .... on
   Level shift para.    LevelShift      ....    0.2500
   Turn off err/grad.   ShiftErr        ....    0.0010
 Zerner damping         CNVZerner       .... off
 Static damping         CNVDamp         .... on
   Fraction old density DampFac         ....    0.7000
   Max. Damping (<1)    DampMax         ....    0.9800
   Min. Damping (>=0)   DampMin         ....    0.0000
   Turn off err/grad.   DampErr         ....    0.1000

SCF Procedure:
 Maximum # iterations   MaxIter         ....   125
 SCF integral mode      SCFMode         .... Direct
   Integral package                     .... SHARK and LIBINT hybrid scheme
 Reset frequency        DirectResetFreq ....    20
 Integral Threshold     Thresh          ....  2.500e-11 Eh
 Primitive CutOff       TCut            ....  2.500e-12 Eh

Convergence Tolerance:
 Convergence Check Mode ConvCheckMode   .... Total+1el-Energy
 Convergence forced     ConvForced      .... 0
 Energy Change          TolE            ....  1.000e-08 Eh
 1-El. energy change                    ....  1.000e-05 Eh
 Orbital Gradient       TolG            ....  1.000e-05
 Orbital Rotation angle TolX            ....  1.000e-05
 DIIS Error             TolErr          ....  5.000e-07

------------------------------
INITIAL GUESS: MODEL POTENTIAL
------------------------------
Loading Hartree-Fock densities                     ... done
Calculating cut-offs                               ... done
Initializing the effective Hamiltonian             ... done
Setting up the integral package (SHARK)            ... done
Starting the Coulomb interaction                   ... done (   0.0 sec)
Making the grid                                    ... done (   0.0 sec)
Mapping shells                                     ... done
Starting the XC term evaluation                    ... done (   0.0 sec)
  promolecular density results
     # of electrons  =     34.997224327
     EX              =    -27.205131893
     EC              =     -1.147272378
     EX+EC           =    -28.352404271
Transforming the Hamiltonian                       ... done (   0.0 sec)
Diagonalizing the Hamiltonian                      ... done (   0.0 sec)
Back transforming the eigenvectors                 ... done (   0.0 sec)
Now organizing SCF variables                       ... done
                      ------------------
                      INITIAL GUESS DONE (   0.1 sec)
                      ------------------
----------------------
INITIAL GUESS ORBITALS
----------------------
                      0         1         2         3         4         5   
                 -10.10692 -10.10672 -10.10636 -10.10631 -10.10588  -0.95440
                   2.00000   2.00000   2.00000   2.00000   2.00000   2.00000
                  --------  --------  --------  --------  --------  --------
  0C   1s        -0.670577 -0.689176 -0.146876 -0.169603  0.018449  0.131060
  0C   2s        -0.030789 -0.037645 -0.010352 -0.012222  0.001662 -0.261717
  0C   3s         0.014108  0.032230  0.011450  0.020074 -0.005491 -0.029002
  0C   1pz       -0.000036  0.000108 -0.000725 -0.000613  0.000293 -0.034084
  0C   1px        0.000600 -0.000970  0.002100  0.001432 -0.000853  0.061178
  0C   1py        0.001547 -0.002103  0.000524 -0.000611 -0.000226 -0.091109
  0C   2pz        0.000929  0.001168  0.000884 -0.000357 -0.000114 -0.004690
  0C   2px       -0.001643 -0.002165 -0.001842  0.001131  0.001049  0.008376
  0C   2py        0.002562  0.002909  0.001579  0.000561  0.002290 -0.012728
  0C   1dz2       0.000511  0.002224  0.000798  0.001281 -0.000258  0.009847
  0C   1dxz       0.000722  0.001038  0.001084  0.001138 -0.000378  0.007009
  0C   1dyz      -0.000499 -0.000836 -0.000197 -0.000454  0.000143 -0.004369
  0C   1dx2y2    -0.000362  0.001669 -0.000988 -0.000199  0.000307  0.002902
  0C   1dxy       0.001051  0.000271  0.000255  0.000397 -0.000285  0.004100
  1C   1s        -0.126546 -0.186864  0.707980  0.617305 -0.205171  0.130432
  1C   2s        -0.003273 -0.006646  0.035708  0.032717 -0.014798 -0.260591
  1C   3s        -0.003168 -0.004916 -0.025939 -0.024847  0.021880 -0.031520
  1C   1pz       -0.000599 -0.000754 -0.000346 -0.000281 -0.000626  0.013186
  1C   1px        0.001583  0.001955  0.000804  0.000784  0.000818 -0.065188
  1C   1py       -0.000041 -0.000162 -0.000355  0.000118 -0.002615 -0.092689
  1C   2pz       -0.000221  0.000108 -0.000123  0.001032  0.000095  0.001915
  1C   2px        0.000082  0.000547 -0.000630 -0.003584  0.000044 -0.009696
  1C   2py       -0.001558  0.002566 -0.002961 -0.002578  0.000924 -0.014481
  1C   1dz2      -0.000325 -0.000329 -0.001569 -0.001649  0.001687  0.010581
  1C   1dxz      -0.000623 -0.000607 -0.001002 -0.001066  0.000636  0.005993
  1C   1dyz       0.000013 -0.000125 -0.000092  0.000098 -0.000586 -0.000636
  1C   1dx2y2     0.000845  0.000925 -0.000009 -0.000151  0.001542  0.002762
  1C   1dxy      -0.000050  0.000284  0.001251  0.000853  0.000008 -0.005915
  2C   1s        -0.029247 -0.001880  0.293466 -0.028108  0.942102  0.129119
  2C   2s        -0.000184 -0.000031  0.009372 -0.000962  0.050305 -0.257930
  2C   3s         0.001988 -0.000030  0.008060 -0.000541 -0.041359 -0.026667
  2C   1pz       -0.000089 -0.000007  0.000694 -0.000057 -0.000431  0.041875
  2C   1px        0.000215 -0.000144 -0.001584  0.001181  0.001037 -0.100844
  2C   1py       -0.000070 -0.000498  0.000811  0.003168 -0.000325  0.032693
  2C   2pz        0.000767  0.000014  0.000675 -0.000061  0.001767  0.005605
  2C   2px       -0.001829 -0.000749 -0.001661 -0.000202 -0.004255 -0.013442
  2C   2py        0.000652 -0.002190  0.000424 -0.001121  0.001376  0.004325
  2C   1dz2      -0.000145 -0.000010  0.000850 -0.000065 -0.002482  0.009246
  2C   1dxz       0.000053  0.000041  0.000430 -0.000264 -0.002313  0.008911
  2C   1dyz      -0.000018  0.000138 -0.000206 -0.000713  0.000749 -0.002897
  2C   1dx2y2    -0.000299 -0.000222  0.000471  0.001093  0.000734 -0.003199
  2C   1dxy       0.000218 -0.000288 -0.000142  0.001584 -0.000524  0.002328
  3C   1s        -0.129863  0.172857  0.595965 -0.727598 -0.209789  0.130461
  3C   2s        -0.003306  0.006079  0.029764 -0.038203 -0.015037 -0.260571
  3C   3s        -0.003581  0.005077 -0.021334  0.028692  0.022049 -0.031679
  3C   1pz       -0.000636  0.000730 -0.000284  0.000333 -0.000624  0.013246
  3C   1px        0.001386 -0.001625  0.000732 -0.000706  0.002194  0.001556
  3C   1py       -0.000945  0.000978 -0.000077  0.000560  0.001640  0.113310
  3C   2pz       -0.000209 -0.000113 -0.000297 -0.001000  0.000089  0.001986
  3C   2px        0.000925  0.001088  0.001458  0.001172 -0.000499  0.000550
  3C   2py        0.001134  0.002421  0.002054 -0.004586 -0.000806  0.017679
  3C   1dz2      -0.000352  0.000332 -0.001265  0.001875  0.001698  0.010577
  3C   1dxz      -0.000539  0.000404 -0.000586  0.001024  0.000863  0.005236
  3C   1dyz       0.000380 -0.000447  0.000557 -0.000651  0.000096 -0.003014
  3C   1dx2y2     0.000305  0.000010 -0.001030  0.001045  0.000480  0.006466
  3C   1dxy      -0.000832  0.000934 -0.000342  0.000186 -0.001468 -0.000772
  4C   1s        -0.702471  0.659591 -0.108452  0.186214  0.018797  0.131107
  4C   2s        -0.032558  0.036318 -0.007715  0.013517  0.001701 -0.261807
  4C   3s         0.015698 -0.031673  0.007532 -0.021542 -0.005593 -0.028945
  4C   1pz       -0.000037 -0.000102 -0.000613  0.000724  0.000298 -0.034096
  4C   1px       -0.000389 -0.000483  0.001111 -0.001730 -0.000568  0.103014
  4C   1py       -0.001504 -0.002323 -0.001603  0.000606  0.000689  0.037898
  4C   2pz        0.000977 -0.001135  0.000918  0.000211 -0.000113 -0.004703
  4C   2px       -0.002980  0.003356 -0.002443 -0.000191 -0.000499  0.014370
  4C   2py       -0.001170  0.001034  0.000002  0.001143 -0.002461  0.005469
  4C   1dz2       0.000621 -0.002207  0.000544 -0.001389 -0.000264  0.009863
  4C   1dxz       0.000946 -0.001299  0.000763 -0.001327 -0.000396  0.008275
  4C   1dyz      -0.000020 -0.000060 -0.000420  0.000376  0.000108 -0.000571
  4C   1dx2y2    -0.001104 -0.000306 -0.000473  0.000516  0.000370 -0.003038
  4C   1dxy      -0.000056  0.001658  0.000856 -0.000209 -0.000206 -0.004061
  5H   1s         0.003985  0.004158  0.001268  0.000665  0.000233 -0.029337
  5H   2s        -0.002998 -0.005562 -0.001393 -0.003417  0.001179 -0.007136
  5H   1pz        0.000590  0.000723  0.000274  0.000396 -0.000055 -0.001613
  5H   1px       -0.001130 -0.001182 -0.000574 -0.000806  0.000060  0.002880
  5H   1py        0.001357  0.002291  0.000475  0.000762 -0.000262 -0.004312
  6H   1s         0.000374  0.001503 -0.004023 -0.003913  0.001084 -0.029360
  6H   2s        -0.000244  0.000821  0.004930  0.004144 -0.003529 -0.007453
  6H   1pz        0.000092  0.000039  0.000354  0.000213 -0.000055  0.000603
  6H   1px       -0.000159 -0.000037 -0.001543 -0.001169  0.000539 -0.003039
  6H   1py        0.000263  0.000206 -0.001848 -0.001849  0.001211 -0.004360
  7H   1s        -0.000410 -0.000001 -0.001941  0.000182 -0.005610 -0.028657
  7H   2s        -0.000885 -0.000010 -0.000884  0.000048  0.007303 -0.007081
  7H   1pz       -0.000038 -0.000001  0.000084 -0.000012  0.001297  0.001937
  7H   1px        0.000090  0.000096 -0.000210 -0.000080 -0.003126 -0.004663
  7H   1py       -0.000035  0.000293  0.000039 -0.000342  0.001011  0.001516
  8H   1s         0.000411 -0.001439 -0.003324  0.004532  0.001113 -0.029409
  8H   2s        -0.000172 -0.000890  0.004152 -0.004893 -0.003557 -0.007562
  8H   1pz        0.000095 -0.000039  0.000314 -0.000271 -0.000057  0.000607
  8H   1px       -0.000289  0.000139 -0.000185 -0.000108 -0.000275  0.000102
  8H   1py       -0.000109  0.000112  0.002002 -0.002550 -0.001313  0.005326
  9H   1s         0.004174 -0.003986  0.001091 -0.000838  0.000232 -0.029335
  9H   2s        -0.003272  0.005434 -0.000733  0.003566  0.001195 -0.007214
  9H   1pz        0.000625 -0.000698  0.000195 -0.000430 -0.000056 -0.001605
  9H   1px       -0.001822  0.002229 -0.000522  0.001193  0.000207  0.004838
  9H   1py       -0.000490  0.001142 -0.000009  0.000145  0.000176  0.001792
                      6         7         8         9        10        11   
                  -0.77002  -0.76945  -0.61155  -0.61036  -0.59838  -0.48076
                   2.00000   2.00000   2.00000   2.00000   2.00000   2.00000
                  --------  --------  --------  --------  --------  --------
  0C   1s        -0.146229 -0.115072 -0.037811 -0.119772 -0.039148 -0.015696
  0C   2s         0.310615  0.244402  0.085022  0.268970  0.082767  0.057901
  0C   3s         0.044117  0.035060  0.039819  0.134579  0.057870  0.055805
  0C   1pz       -0.012834  0.034961 -0.064472 -0.009979 -0.070820  0.071071
  0C   1px        0.061650 -0.112922  0.219760 -0.015430  0.131634 -0.098693
  0C   1py        0.084709 -0.060848  0.148299 -0.128980 -0.175182  0.277149
  0C   2pz       -0.004358  0.008274 -0.007977  0.014928 -0.017013  0.016341
  0C   2px        0.017740 -0.027687  0.036549 -0.032968  0.031412 -0.037415
  0C   2py        0.018479 -0.017376  0.046902  0.020866 -0.043077  0.017820
  0C   1dz2      -0.006618 -0.002772 -0.001616 -0.001152  0.000276 -0.000572
  0C   1dxz      -0.000079 -0.007627  0.003075 -0.002155  0.000662  0.003648
  0C   1dyz      -0.000225 -0.000384  0.000855  0.001579 -0.005323 -0.001946
  0C   1dx2y2    -0.008932  0.012513 -0.009510  0.001521  0.003662 -0.006755
  0C   1dxy       0.007261 -0.000561  0.001391 -0.003704  0.012556  0.007189
  1C   1s         0.063853 -0.174391  0.103970  0.076031 -0.031417  0.006789
  1C   2s        -0.135706  0.370363 -0.233108 -0.170779  0.065523 -0.024155
  1C   3s        -0.018717  0.053744 -0.115286 -0.084186  0.038148 -0.027167
  1C   1pz       -0.052883 -0.024375  0.048231 -0.087023  0.027583 -0.033944
  1C   1px        0.108580  0.063088 -0.072992  0.205326 -0.131043  0.035820
  1C   1py       -0.099109 -0.005563  0.170555 -0.080921 -0.177637 -0.169019
  1C   2pz       -0.013569 -0.005554  0.015293 -0.015000  0.007581  0.012136
  1C   2px        0.028445  0.013744 -0.042263  0.024232 -0.036729 -0.031311
  1C   2py       -0.023518 -0.003343 -0.004549 -0.048196 -0.051438  0.002732
  1C   1dz2       0.003269 -0.005457  0.001170  0.001793  0.002359  0.000658
  1C   1dxz      -0.002601 -0.007142  0.002219 -0.002036 -0.002022 -0.004192
  1C   1dyz      -0.004628  0.001668  0.001547 -0.001475  0.004084 -0.003928
  1C   1dx2y2     0.014128  0.005980 -0.004439  0.008087  0.003965  0.013238
  1C   1dxy       0.006036 -0.002315 -0.003602  0.000474 -0.013034  0.006183
  2C   1s         0.186666  0.006338 -0.124413 -0.000147 -0.044606  0.018369
  2C   2s        -0.396681 -0.013432  0.279545  0.000337  0.094954 -0.069898
  2C   3s        -0.057813 -0.002238  0.138023  0.000071  0.069672 -0.059975
  2C   1pz        0.014802  0.000448  0.032683  0.000100  0.085251  0.136771
  2C   1px       -0.033965 -0.050922 -0.078877  0.088031 -0.205261 -0.328855
  2C   1py        0.016818 -0.153110  0.025246  0.271968  0.066509  0.108025
  2C   2pz        0.002232  0.000100 -0.015752 -0.000004  0.018751  0.017254
  2C   2px       -0.004906 -0.012957  0.037890  0.018273 -0.045197 -0.041688
  2C   2py        0.003210 -0.038994 -0.012587  0.056312  0.014558  0.012815
  2C   1dz2       0.007407  0.000254 -0.001320 -0.000004 -0.000885 -0.000033
  2C   1dxz       0.003086  0.002015 -0.002609 -0.001214  0.005008 -0.002742
  2C   1dyz      -0.001230  0.005920  0.000845 -0.003749 -0.001624  0.000821
  2C   1dx2y2     0.004960 -0.009114  0.002898  0.005851 -0.010299  0.005037
  2C   1dxy      -0.002923 -0.012949 -0.002118  0.008073  0.007463 -0.003471
  3C   1s         0.051800  0.178296  0.104103 -0.075843 -0.031423  0.006396
  3C   2s        -0.110110 -0.378594 -0.233396  0.170386  0.065571 -0.022739
  3C   3s        -0.015076 -0.054597 -0.115142  0.083870  0.038490 -0.025026
  3C   1pz       -0.054375  0.020695  0.047935  0.087111  0.027714 -0.034901
  3C   1px        0.149413 -0.044255 -0.158691 -0.214111 -0.001950  0.128704
  3C   1py        0.014259  0.033479 -0.095457  0.054733  0.220792  0.108843
  3C   2pz       -0.013978  0.004688  0.015434  0.015072  0.007608  0.012171
  3C   2px        0.037881 -0.010717 -0.031771 -0.048173  0.000496 -0.027460
  3C   2py        0.001979  0.005461  0.028541 -0.024716  0.063238  0.014877
  3C   1dz2       0.002870  0.005655  0.001167 -0.001780  0.002351  0.000662
  3C   1dxz       0.000140  0.006789  0.000881  0.000795 -0.004014 -0.001141
  3C   1dyz       0.005464 -0.002491 -0.002579 -0.002392 -0.002113  0.005679
  3C   1dx2y2    -0.001089 -0.004168  0.002038 -0.002068  0.013612 -0.001671
  3C   1dxy      -0.015616  0.003893  0.005326  0.007852  0.000312 -0.014608
  4C   1s        -0.153723  0.104785 -0.038087  0.119688 -0.039173 -0.015952
  4C   2s         0.326529 -0.222480  0.085667 -0.268784  0.082856  0.058790
  4C   3s         0.046326 -0.031930  0.040641 -0.134238  0.056903  0.055953
  4C   1pz       -0.010459 -0.035850 -0.064615  0.009741 -0.070802  0.072662
  4C   1px       -0.003503  0.055620  0.091144 -0.063054  0.209532 -0.246875
  4C   1py       -0.096650 -0.122423 -0.248733 -0.114084  0.064734 -0.165973
  4C   2pz       -0.003841 -0.008629 -0.008002 -0.014924 -0.017149  0.016400
  4C   2px        0.002629  0.012614  0.001881  0.038971  0.051064 -0.040958
  4C   2py       -0.023430 -0.031919 -0.059624 -0.002457  0.016873  0.007041
  4C   1dz2      -0.006792  0.002325 -0.001613  0.001160  0.000292 -0.000531
  4C   1dxz      -0.000330  0.005963  0.001991  0.002670  0.003685  0.004043
  4C   1dyz       0.000579 -0.004756 -0.002478  0.000008  0.003944 -0.000484
  4C   1dx2y2    -0.009349 -0.005105 -0.004279 -0.004019 -0.010783 -0.008873
  4C   1dxy       0.005398  0.012107  0.008584  0.000305 -0.007420  0.003930
  5H   1s         0.082259  0.066105  0.044892  0.166066  0.159838 -0.208366
  5H   2s         0.010270  0.008478  0.013516  0.043716  0.014106 -0.077297
  5H   1pz        0.002936  0.003079 -0.000050  0.004281  0.003705 -0.003388
  5H   1px       -0.004638 -0.006277  0.002055 -0.008263 -0.006522  0.006994
  5H   1py        0.009757  0.005879  0.005909  0.009588  0.010237 -0.006182
  6H   1s        -0.035385  0.099841 -0.148446 -0.103047  0.147962  0.080538
  6H   2s        -0.004491  0.012871 -0.037368 -0.027223  0.010262  0.029814
  6H   1pz       -0.000328 -0.001803  0.002405 -0.000607 -0.001258 -0.001919
  6H   1px       -0.000826  0.008227 -0.009036 -0.001369  0.006559  0.005348
  6H   1py       -0.005238  0.010474 -0.008035 -0.009167  0.009846  0.000677
  7H   1s        -0.104937 -0.003591  0.165685  0.000199  0.166417  0.266142
  7H   2s        -0.013392 -0.000471  0.044955  0.000010  0.016240  0.098209
  7H   1pz        0.005182  0.000179 -0.004872 -0.000002 -0.004833 -0.004524
  7H   1px       -0.012466 -0.001198  0.011745  0.001658  0.011665  0.010938
  7H   1py        0.004126 -0.002218 -0.003805  0.005082 -0.003776 -0.003485
  8H   1s        -0.028531 -0.102017 -0.148648  0.102781  0.147959  0.075495
  8H   2s        -0.003582 -0.013224 -0.037512  0.027126  0.010229  0.027975
  8H   1pz       -0.000445  0.001787  0.002411  0.000603 -0.001269 -0.001909
  8H   1px        0.002427 -0.000337 -0.002577 -0.004272 -0.000475  0.003977
  8H   1py        0.003827  0.013606  0.011820 -0.008205 -0.011808 -0.003426
  9H   1s         0.086565 -0.060312  0.045265 -0.165976  0.159900 -0.211286
  9H   2s         0.010882 -0.007870  0.013589 -0.043747  0.014048 -0.078281
  9H   1pz        0.003134 -0.002863 -0.000037 -0.004271  0.003700 -0.003403
  9H   1px       -0.010037  0.007855 -0.001835  0.012305 -0.011297  0.009376
  9H   1py       -0.005230  0.000723 -0.005976  0.002899 -0.004474  0.001005
                     12        13        14        15        16        17   
                  -0.47807  -0.47032  -0.46986  -0.45354  -0.30435  -0.30385
                   2.00000   2.00000   2.00000   2.00000   2.00000   2.00000
                  --------  --------  --------  --------  --------  --------
  0C   1s         0.011710  0.013798  0.042746  0.000016 -0.000009  0.000006
  0C   2s        -0.043584 -0.028877 -0.092121 -0.000113  0.000135 -0.000040
  0C   3s        -0.028812 -0.115360 -0.350221 -0.000224 -0.000737  0.000135
  0C   1pz       -0.091260 -0.045616  0.081800 -0.259868 -0.325931 -0.243036
  0C   1px        0.207439  0.202338 -0.186535 -0.097288 -0.122473 -0.091285
  0C   1py       -0.110079  0.247767  0.097103  0.031887  0.039839  0.029646
  0C   2pz       -0.002550 -0.034766 -0.026501 -0.102157 -0.183257 -0.137192
  0C   2px       -0.004291  0.102537  0.031581 -0.038389 -0.068569 -0.051718
  0C   2py       -0.034623  0.030022 -0.119163  0.012619  0.022108  0.016786
  0C   1dz2      -0.001922 -0.001045  0.000088 -0.009075  0.001941 -0.009951
  0C   1dxz       0.004277  0.003232 -0.000824  0.007478 -0.007087  0.015728
  0C   1dyz       0.001877 -0.002447 -0.006879 -0.013380 -0.014282  0.008582
  0C   1dx2y2    -0.013372 -0.006124  0.007955  0.001832 -0.004554  0.007689
  0C   1dxy       0.000016  0.008622  0.015464 -0.006394 -0.004400  0.000776
  1C   1s         0.020951 -0.036832 -0.024383  0.000021  0.000007  0.000018
  1C   2s        -0.073904  0.078852  0.051223 -0.000215 -0.000059 -0.000122
  1C   3s        -0.067610  0.300499  0.206905  0.001139  0.000356  0.000074
  1C   1pz        0.056741  0.086045 -0.079314 -0.258143  0.130582 -0.385914
  1C   1px       -0.233191 -0.242971  0.125636 -0.097304  0.049129 -0.144971
  1C   1py       -0.253299 -0.044481 -0.262145  0.031340 -0.015994  0.047048
  1C   2pz        0.003479  0.012311 -0.039162 -0.102056  0.073391 -0.217248
  1C   2px       -0.022887  0.006526  0.106536 -0.038285  0.028022 -0.081726
  1C   2py       -0.042289  0.120054  0.006995  0.013150 -0.008786  0.026683
  1C   1dz2      -0.001843 -0.002252 -0.000913  0.003530  0.013504  0.006380
  1C   1dxz       0.002253  0.004366  0.000002 -0.009270 -0.012871 -0.008978
  1C   1dyz      -0.000339 -0.003356 -0.004892 -0.014510  0.014396 -0.002362
  1C   1dx2y2    -0.007073 -0.009370  0.003033 -0.005527 -0.004033 -0.004147
  1C   1dxy       0.003968  0.012637  0.012378 -0.004142  0.007694  0.000522
  2C   1s        -0.000212  0.045174 -0.000731  0.000074 -0.000001  0.000002
  2C   2s         0.000723 -0.097140  0.001611 -0.000249 -0.000050 -0.000024
  2C   3s         0.000213 -0.370158  0.005681 -0.001423 -0.000248 -0.000274
  2C   1pz       -0.001181 -0.076902  0.001103 -0.256265  0.408222  0.003981
  2C   1px        0.042641  0.187505  0.100476 -0.096394  0.153181  0.001492
  2C   1py        0.121008 -0.055151  0.319466  0.031202 -0.049760 -0.000506
  2C   2pz       -0.000150  0.046842 -0.000787 -0.100324  0.229532  0.002375
  2C   2px       -0.009288 -0.112159  0.036863 -0.038241  0.086399  0.000700
  2C   2py       -0.029805  0.038347  0.107835  0.012615 -0.028219 -0.000254
  2C   1dz2       0.000011 -0.001749  0.000034  0.011170 -0.005558 -0.000047
  2C   1dxz      -0.001769  0.006747 -0.001253 -0.013094  0.006412  0.007550
  2C   1dyz      -0.005648 -0.002241 -0.003505  0.004242 -0.002339  0.023082
  2C   1dx2y2     0.008732 -0.014662  0.005746 -0.005224  0.002535  0.005659
  2C   1dxy       0.012184  0.010821  0.007455  0.003784 -0.001944  0.007748
  3C   1s        -0.021018 -0.036081  0.025504 -0.000018 -0.000009  0.000003
  3C   2s         0.074118  0.077340 -0.053591 -0.000066 -0.000010  0.000009
  3C   3s         0.068350  0.293729 -0.216036  0.001237  0.000936  0.000111
  3C   1pz       -0.056216  0.088460  0.076247 -0.258396  0.122802  0.388332
  3C   1px        0.037949 -0.178498 -0.250250 -0.096947  0.046240  0.145857
  3C   1py       -0.344260  0.173575 -0.144297  0.031776 -0.015056 -0.047413
  3C   2pz       -0.003631  0.013450  0.038809 -0.102396  0.069212  0.218780
  3C   2px       -0.005896 -0.067601 -0.080241 -0.038258  0.026137  0.082070
  3C   2py       -0.048250 -0.098996  0.071334  0.011797 -0.008717 -0.026780
  3C   1dz2       0.001834 -0.002208  0.000987  0.003536  0.013643 -0.006063
  3C   1dxz      -0.002043  0.005428 -0.003044  0.000997 -0.018987  0.005529
  3C   1dyz       0.000902  0.000049 -0.003989  0.017211 -0.003950 -0.007244
  3C   1dx2y2     0.006057 -0.014581  0.011280  0.002220 -0.008603  0.001626
  3C   1dxy      -0.005184  0.005161  0.006613  0.006518  0.001538 -0.003712
  4C   1s        -0.011375  0.012413 -0.043152  0.000038 -0.000015  0.000002
  4C   2s         0.042249 -0.025870  0.093025 -0.000179  0.000136  0.000012
  4C   3s         0.027755 -0.104216  0.353649 -0.000731 -0.000374 -0.000108
  4C   1pz        0.090013 -0.048212 -0.080564 -0.259921 -0.330811  0.236396
  4C   1px       -0.227578  0.024722  0.207523 -0.097810 -0.124382  0.088807
  4C   1py        0.036361 -0.320097 -0.020473  0.031459  0.040350 -0.028817
  4C   2pz        0.002376 -0.034032  0.027396 -0.102262 -0.186174  0.133447
  4C   2px       -0.016207  0.062408 -0.097478 -0.038050 -0.069128  0.050108
  4C   2py       -0.030678 -0.086963 -0.075315  0.012267  0.022549 -0.016310
  4C   1dz2       0.001935 -0.001029 -0.000071 -0.009084  0.001745  0.010009
  4C   1dxz      -0.002484  0.003945 -0.003472  0.013891  0.002717 -0.007620
  4C   1dyz       0.004021 -0.000080 -0.006050  0.006480  0.015419  0.016468
  4C   1dx2y2     0.004373 -0.009722  0.012557  0.006619  0.002771 -0.001584
  4C   1dxy      -0.012785  0.003480  0.012272  0.000227  0.005551  0.007651
  5H   1s         0.161237 -0.083450 -0.226459 -0.000011 -0.000109 -0.000019
  5H   2s         0.059990 -0.033803 -0.090284  0.000203  0.000018  0.000129
  5H   1pz        0.001340 -0.002474 -0.002526 -0.006013 -0.010291 -0.007707
  5H   1px       -0.000939  0.006855  0.003696 -0.002265 -0.003868 -0.002896
  5H   1py        0.008035  0.000834 -0.009256  0.000755  0.001256  0.000947
  6H   1s         0.243603  0.202499  0.147361  0.000265 -0.000002  0.000004
  6H   2s         0.090543  0.080073  0.058475  0.000214  0.000205  0.000031
  6H   1pz       -0.000633  0.000350 -0.002622 -0.005977  0.004108 -0.012244
  6H   1px        0.004936  0.002196  0.007753 -0.002231  0.001543 -0.004591
  6H   1py        0.009962  0.009561  0.002366  0.000747 -0.000498  0.001506
  7H   1s        -0.002440 -0.238179  0.003605 -0.000001  0.000090 -0.000002
  7H   2s        -0.000843 -0.095292  0.001416 -0.000034  0.000247 -0.000112
  7H   1pz        0.000037  0.003884 -0.000057 -0.005955  0.012914  0.000126
  7H   1px        0.001251 -0.009324  0.002213 -0.002231  0.004857  0.000043
  7H   1py        0.004133  0.003130  0.006355  0.000714 -0.001571 -0.000015
  8H   1s        -0.245306  0.197414 -0.153753  0.000275 -0.000067 -0.000024
  8H   2s        -0.091154  0.078133 -0.061083  0.000202 -0.000036  0.000089
  8H   1pz        0.000680  0.000424  0.002612 -0.005973  0.003853  0.012308
  8H   1px        0.001786 -0.003987 -0.004765 -0.002246  0.001450  0.004625
  8H   1py        0.011025 -0.008806  0.006745  0.000710 -0.000469 -0.001503
  9H   1s        -0.156802 -0.076511  0.229150 -0.000294 -0.000167  0.000039
  9H   2s        -0.058208 -0.031039  0.091273 -0.000076 -0.000272  0.000076
  9H   1pz       -0.001254 -0.002385  0.002592 -0.006019 -0.010437  0.007496
  9H   1px        0.005271  0.004791 -0.008578 -0.002265 -0.003908  0.002809
  9H   1py        0.005941 -0.004844 -0.005161  0.000739  0.001296 -0.000917
                     18        19        20        21        22        23   
                  -0.07285  -0.07214  -0.00869   0.04400   0.04446   0.06554
                   0.00000   0.00000   0.00000   0.00000   0.00000   0.00000
                  --------  --------  --------  --------  --------  --------
  0C   1s        -0.000018 -0.000010  0.049843  0.034033 -0.038239 -0.038215
  0C   2s         0.000018 -0.000048 -0.135061 -0.094358  0.105559  0.102191
  0C   3s         0.000105  0.001476 -0.537701 -0.561254  0.687157  0.406669
  0C   1pz        0.126986 -0.439721  0.042472  0.048892 -0.067645 -0.006931
  0C   1px        0.047731 -0.165116 -0.074464 -0.084889  0.124246  0.001951
  0C   1py       -0.015512  0.053766  0.114474  0.136960 -0.170255 -0.050263
  0C   2pz        0.146880 -0.512872  0.079637  0.127236 -0.132846 -0.018283
  0C   2px        0.055336 -0.193267 -0.142301 -0.255227  0.223048 -0.034048
  0C   2py       -0.018071  0.062757  0.216570  0.258707 -0.404309 -0.255658
  0C   1dz2      -0.012167  0.004837 -0.006093 -0.000481  0.001917  0.001199
  0C   1dxz       0.020101 -0.000974 -0.004732 -0.003524 -0.001183  0.005791
  0C   1dyz       0.013344  0.016081  0.013682  0.003718 -0.005326 -0.000478
  0C   1dx2y2     0.010068  0.001243 -0.010607  0.003473  0.009839 -0.010111
  0C   1dxy       0.001939  0.006397 -0.028459 -0.010227  0.009866  0.003154
  1C   1s         0.000032  0.000034  0.049535  0.045208  0.013810  0.097663
  1C   2s        -0.000203 -0.000018 -0.134126 -0.126134 -0.038256 -0.257939
  1C   3s         0.000575 -0.002231 -0.533306 -0.817213 -0.270932 -1.017613
  1C   1pz       -0.359973  0.282318 -0.015611 -0.028137 -0.014715 -0.018778
  1C   1px       -0.135246  0.105956  0.079662  0.144439  0.060512  0.072810
  1C   1py        0.043895 -0.034343  0.117760  0.213357  0.066636  0.069351
  1C   2pz       -0.418641  0.328911 -0.030365 -0.072738  0.002776 -0.090362
  1C   2px       -0.157223  0.123292  0.152902  0.337213  0.055511  0.342653
  1C   2py        0.051438 -0.040201  0.223046  0.443104  0.193703  0.315497
  1C   1dz2       0.007986  0.014975 -0.010403 -0.003156 -0.001733 -0.006952
  1C   1dxz      -0.004153 -0.018360  0.001519  0.000842  0.003364 -0.002820
  1C   1dyz       0.018899  0.003424 -0.007897 -0.004431  0.000550  0.003945
  1C   1dx2y2     0.000149 -0.007552 -0.010808 -0.002278 -0.010031 -0.007358
  1C   1dxy       0.008015  0.004328  0.029822  0.013953  0.002352 -0.003789
  2C   1s        -0.000021  0.000009  0.049294 -0.000567  0.052935 -0.120785
  2C   2s         0.000144 -0.000058 -0.133757  0.001774 -0.146064  0.320635
  2C   3s        -0.001166  0.000801 -0.531911  0.013305 -0.898740  1.236389
  2C   1pz        0.457258 -0.016048 -0.051258  0.001615 -0.103175  0.040213
  2C   1px        0.171600 -0.006005  0.123667 -0.001891  0.248482 -0.097126
  2C   1py       -0.055764  0.001953 -0.039982  0.008255 -0.080482  0.031883
  2C   2pz        0.531719 -0.018974 -0.096401  0.003225 -0.226737  0.198620
  2C   2px        0.199448 -0.006345  0.232557 -0.032514  0.545520 -0.477726
  2C   2py       -0.064958  0.002055 -0.076364 -0.075090 -0.180729  0.157371
  2C   1dz2       0.009925 -0.000366 -0.003324 -0.000031 -0.000486  0.008646
  2C   1dxz      -0.011977 -0.008071 -0.015691  0.001173 -0.007306  0.004716
  2C   1dyz       0.002860 -0.026308  0.005087  0.003304  0.002416 -0.001508
  2C   1dx2y2    -0.004890 -0.006213  0.023816 -0.005407  0.012526  0.003545
  2C   1dxy       0.003087 -0.008915 -0.017251 -0.007028 -0.009210 -0.002669
  3C   1s         0.000001  0.000004  0.049653 -0.046519  0.011565  0.097177
  3C   2s        -0.000014  0.000054 -0.134526  0.129970 -0.032191 -0.256907
  3C   3s        -0.000636 -0.001104 -0.533371  0.834039 -0.233190 -1.013621
  3C   1pz       -0.378859 -0.256148 -0.015554  0.029064 -0.013512 -0.018813
  3C   1px       -0.142425 -0.096199 -0.004685  0.008131  0.010345  0.018876
  3C   1py        0.046326  0.031334 -0.142310  0.261253 -0.079370 -0.095658
  3C   2pz       -0.440479 -0.298628 -0.029892  0.072693  0.005942 -0.090432
  3C   2px       -0.166264 -0.112280 -0.008522 -0.009560 -0.069778  0.095175
  3C   2py        0.053894  0.036704 -0.271019  0.567534 -0.165157 -0.448756
  3C   1dz2       0.006845 -0.015531 -0.010382  0.003226 -0.001586 -0.006904
  3C   1dxz      -0.013257  0.017845  0.005828 -0.003302  0.002308 -0.004655
  3C   1dyz      -0.013416 -0.007077  0.005515 -0.002966 -0.002582 -0.001640
  3C   1dx2y2    -0.007111  0.006974 -0.031711  0.014108 -0.004812  0.001553
  3C   1dxy      -0.003062 -0.005665  0.000936  0.001847  0.008933  0.008267
  4C   1s        -0.000013  0.000022  0.049792 -0.032336 -0.038756 -0.037706
  4C   2s        -0.000044 -0.000005 -0.135193  0.090149  0.107424  0.100980
  4C   3s         0.001152 -0.000280 -0.536317  0.529180  0.700970  0.398268
  4C   1pz        0.157525  0.429748  0.041935 -0.046096 -0.069003 -0.007126
  4C   1px        0.059255  0.161365 -0.127646  0.141569  0.205213  0.031777
  4C   1py       -0.019258 -0.052424 -0.049100  0.058332  0.066935  0.040855
  4C   2pz        0.183097  0.501480  0.079538 -0.122338 -0.135551 -0.017362
  4C   2px        0.067984  0.188256 -0.241385  0.341884  0.424875  0.121712
  4C   2py       -0.021695 -0.060753 -0.090023  0.049426  0.196603  0.231642
  4C   1dz2      -0.012490 -0.003941 -0.006090  0.000385  0.001896  0.001131
  4C   1dxz       0.009183  0.009693 -0.011884  0.004903  0.002319  0.005052
  4C   1dyz      -0.021681  0.013983 -0.008360  0.000818  0.005073 -0.002982
  4C   1dx2y2     0.001701  0.005621  0.023756 -0.010524 -0.006688 -0.006388
  4C   1dxy      -0.009925  0.003882  0.018991  0.000455 -0.012429  0.008660
  5H   1s        -0.000012  0.000007  0.146465  0.070650 -0.090928 -0.045767
  5H   2s        -0.000208  0.000062  0.778801  0.848691 -1.068112 -0.471537
  5H   1pz        0.006445 -0.022592 -0.003379 -0.002220  0.003096  0.003658
  5H   1px        0.002416 -0.008478  0.006022  0.003602 -0.005506 -0.010433
  5H   1py       -0.000784  0.002767 -0.009358 -0.007191  0.008390 -0.002170
  6H   1s        -0.000005  0.000053  0.146271  0.102718  0.035688  0.112563
  6H   2s         0.000117  0.000787  0.777221  1.252722  0.422717  1.154596
  6H   1pz       -0.018468  0.014416  0.001232  0.001062  0.000686 -0.000978
  6H   1px       -0.006931  0.005417 -0.006478 -0.006244 -0.002831 -0.001863
  6H   1py        0.002267 -0.001758 -0.009659 -0.010364 -0.003018 -0.013692
  7H   1s        -0.000028  0.000052  0.145128 -0.001568  0.119551 -0.134491
  7H   2s         0.000092  0.000500  0.764488 -0.019704  1.385556 -1.376032
  7H   1pz        0.023507 -0.000830  0.004206 -0.000082  0.005057 -0.005340
  7H   1px        0.008833 -0.000305 -0.010143 -0.000034 -0.012242  0.012874
  7H   1py       -0.002867  0.000103  0.003323 -0.000693  0.003951 -0.004193
  8H   1s         0.000075  0.000107  0.146249 -0.104440  0.031268  0.110573
  8H   2s        -0.000093  0.000000  0.778572 -1.276993  0.368473  1.140085
  8H   1pz       -0.019423 -0.013067  0.001251 -0.001081  0.000628 -0.001007
  8H   1px       -0.007281 -0.004900  0.000467 -0.001063 -0.000478  0.006579
  8H   1py        0.002369  0.001591  0.011619 -0.012236  0.003604  0.011960
  9H   1s         0.000069  0.000026  0.146436 -0.066944 -0.092700 -0.046052
  9H   2s        -0.000072  0.000307  0.776582 -0.803759 -1.087092 -0.469544
  9H   1pz        0.008002  0.022069 -0.003426  0.002091  0.003162  0.003667
  9H   1px        0.003001  0.008283  0.010404 -0.006764 -0.009606 -0.007226
  9H   1py       -0.001002 -0.002704  0.004018 -0.003635 -0.003661  0.007899
                     24        25        26        27        28        29   
                   0.06614   0.10862   0.10927   0.22615   0.22705   0.23403
                   0.00000   0.00000   0.00000   0.00000   0.00000   0.00000
                  --------  --------  --------  --------  --------  --------
  0C   1s        -0.113012 -0.046225  0.075841  0.054191  0.086299  0.066207
  0C   2s         0.298963  0.146075 -0.241910 -0.203327 -0.237679 -0.541272
  0C   3s         1.164110  0.974679 -1.618368 -2.273967 -4.736115  0.726472
  0C   1pz       -0.034355 -0.044401 -0.078581 -0.005766 -0.080090 -0.016417
  0C   1px        0.065461  0.197860  0.213650 -0.043273  0.165542  0.038929
  0C   1py       -0.080247  0.245512  0.011904 -0.184430 -0.144906 -0.026612
  0C   2pz       -0.165164 -0.204373 -0.261353 -0.535424 -0.550622  0.044705
  0C   2px        0.313796  0.830949  0.760547  1.303143  0.768405 -0.134521
  0C   2py       -0.388518  0.880961  0.200545 -0.374925 -2.147212 -0.037707
  0C   1dz2       0.008264  0.010891 -0.007104  0.008941 -0.008453  0.040929
  0C   1dxz       0.004044 -0.009889 -0.015145 -0.013988  0.004966  0.032249
  0C   1dyz      -0.000700  0.007796 -0.013360 -0.002211  0.002587 -0.024845
  0C   1dx2y2     0.003647  0.029188  0.033729  0.043812 -0.024555  0.011299
  0C   1dxy      -0.004459 -0.034846  0.029995 -0.011579  0.005312  0.034695
  1C   1s         0.072196 -0.086654 -0.022331 -0.078096 -0.046839  0.080279
  1C   2s        -0.191859  0.273638  0.072093  0.182196  0.148271 -0.579129
  1C   3s        -0.769568  1.824688  0.471117  4.668200  2.321650 -0.061370
  1C   1pz       -0.000364  0.014734 -0.127569 -0.047148  0.038781  0.013464
  1C   1px        0.025270  0.017903  0.284291  0.173343 -0.045943 -0.051990
  1C   1py        0.075565  0.175582 -0.169008  0.143503  0.179379 -0.060573
  1C   2pz        0.014218  0.074871 -0.498241 -0.074546 -0.437308  0.001638
  1C   2px        0.080628 -0.034625  1.094418  0.877704  1.307201 -0.112778
  1C   2py        0.364702  0.508908 -0.715702  2.094919  0.438273 -0.325925
  1C   1dz2      -0.003969  0.006241 -0.002108  0.011713 -0.002907  0.046222
  1C   1dxz      -0.006597  0.013217  0.016914 -0.001602  0.013663  0.023178
  1C   1dyz      -0.000759 -0.018310  0.006424 -0.005779  0.010801  0.003141
  1C   1dx2y2     0.008925 -0.002839 -0.044126  0.024935 -0.042264  0.013242
  1C   1dxy       0.002056  0.043875 -0.003349  0.000632 -0.014633 -0.041218
  2C   1s         0.000130 -0.006324 -0.087723  0.106405 -0.017466  0.055154
  2C   2s        -0.000367  0.020447  0.281006 -0.347243  0.059470 -0.509270
  2C   3s         0.003838  0.141873  1.866000 -5.054648  0.796466  1.304321
  2C   1pz        0.000222 -0.004005 -0.054277  0.095716 -0.015676  0.008230
  2C   1px       -0.011393  0.122849  0.122561 -0.237854 -0.010238 -0.017979
  2C   1py       -0.033128  0.344278 -0.068011  0.051665 -0.156911  0.004006
  2C   2pz       -0.000541 -0.011796 -0.141843  0.919813 -0.145580 -0.121720
  2C   2px       -0.059667  0.470876  0.309469 -2.164176  0.681025  0.293299
  2C   2py       -0.188399  1.352795 -0.210884  0.879702  0.898907 -0.086399
  2C   1dz2      -0.000039  0.001069  0.015366  0.000270 -0.000332  0.038790
  2C   1dxz      -0.001447  0.004744 -0.009474  0.001876  0.005644  0.044045
  2C   1dyz      -0.004465  0.017075  0.001659  0.002737  0.019141 -0.014175
  2C   1dx2y2     0.006938 -0.023486  0.040004 -0.006036 -0.029111 -0.025948
  2C   1dxy       0.009687 -0.038370 -0.024841 -0.005687 -0.041175  0.018219
  3C   1s        -0.072769  0.082152 -0.034770 -0.059753  0.067596  0.081232
  3C   2s         0.193615 -0.259204  0.111567  0.127749 -0.188658 -0.582527
  3C   3s         0.769844 -1.742185  0.732388  3.715300 -3.658990 -0.101876
  3C   1pz        0.000793 -0.032870 -0.123919 -0.058120 -0.022566  0.012079
  3C   1px        0.023574  0.135599  0.312572  0.098261  0.118341 -0.004725
  3C   1py        0.077131  0.146962 -0.052448 -0.169319  0.179449  0.082551
  3C   2pz       -0.013840 -0.146904 -0.482238  0.065965  0.439353  0.010116
  3C   2px        0.149719  0.516557  1.245243 -0.743080 -0.602165  0.088522
  3C   2py        0.349071  0.385736 -0.119612 -1.755053  1.748774  0.350979
  3C   1dz2       0.004028 -0.006466 -0.001161  0.011917 -0.001693  0.046255
  3C   1dxz       0.004935 -0.019691  0.013015  0.000404 -0.005412  0.016898
  3C   1dyz      -0.004412 -0.009254 -0.013898  0.010519  0.014475 -0.015880
  3C   1dx2y2    -0.000852  0.040528 -0.016687  0.006677 -0.003745  0.043222
  3C   1dxy       0.009007  0.017155  0.040878 -0.036535 -0.035045 -0.000535
  4C   1s         0.113668  0.056911  0.068266  0.024942 -0.099935  0.064545
  4C   2s        -0.301166 -0.179992 -0.218391 -0.120093  0.298123 -0.536000
  4C   3s        -1.168922 -1.199060 -1.454889 -0.686303  5.195881  0.797908
  4C   1pz        0.034853  0.032499 -0.083899  0.020333  0.077660 -0.015477
  4C   1px       -0.102318  0.008271  0.166424  0.000995 -0.232139  0.043066
  4C   1py       -0.027576  0.290801 -0.180239  0.160996 -0.073895 -0.002290
  4C   2pz        0.166740  0.165151 -0.289488 -0.339557  0.688734  0.053554
  4C   2px       -0.486771 -0.083269  0.516039  0.627504 -2.183412 -0.115057
  4C   2py       -0.132816  1.099210 -0.779529 -0.838924 -1.082589  0.092079
  4C   1dz2      -0.008288 -0.011827 -0.005377  0.010866  0.004579  0.041115
  4C   1dxz      -0.003771  0.011810 -0.006265 -0.010408  0.000055  0.040697
  4C   1dyz       0.001757  0.003458  0.019426  0.011037  0.001574  0.001177
  4C   1dx2y2    -0.005257 -0.044455 -0.011512  0.027289  0.004937 -0.029246
  4C   1dxy       0.002221  0.010609 -0.043425 -0.042745 -0.008342 -0.021816
  5H   1s        -0.128399  0.069079 -0.119738 -0.034898  0.023208 -0.310010
  5H   2s        -1.314829 -0.102323  0.187290 -0.346077 -0.692399  0.058043
  5H   1pz        0.003394 -0.006275 -0.001625 -0.006301  0.005664  0.006308
  5H   1px       -0.004755  0.020558  0.008697  0.025024 -0.017560 -0.013280
  5H   1py        0.012991  0.011934  0.013384  0.025434 -0.007718  0.010524
  6H   1s         0.081621  0.132727  0.036752 -0.048399  0.006723 -0.305064
  6H   2s         0.865626 -0.169763 -0.069281  0.683374  0.344327 -0.056362
  6H   1pz        0.003982  0.003198 -0.009492  0.006896 -0.012289 -0.003305
  6H   1px       -0.011485 -0.008901  0.019828 -0.015904  0.025238  0.012942
  6H   1py       -0.002553 -0.001196 -0.016726  0.007619 -0.023058  0.012582
  7H   1s         0.000018  0.010935  0.139927 -0.019144  0.005994 -0.312144
  7H   2s        -0.000393 -0.011124 -0.201914 -0.767962  0.121879  0.137101
  7H   1pz       -0.000016  0.000226  0.002471 -0.002884  0.000531 -0.006097
  7H   1px       -0.003390  0.008425 -0.006590  0.009009  0.011316  0.014839
  7H   1py       -0.010515  0.027703 -0.000136  0.003961  0.039163 -0.004433
  8H   1s        -0.082240 -0.126897  0.056197 -0.048120  0.014316 -0.305621
  8H   2s        -0.874800  0.152414 -0.091801  0.543203 -0.539447 -0.064340
  8H   1pz       -0.003988 -0.004572 -0.008920  0.010328  0.009565 -0.003145
  8H   1px        0.007760  0.010253  0.024610 -0.026992 -0.026849  0.002573
  8H   1py       -0.008890 -0.005890  0.002831  0.001721 -0.004362 -0.017909
  9H   1s         0.129931 -0.086214 -0.108449 -0.039350 -0.005367 -0.310692
  9H   2s         1.325629  0.130205  0.169960 -0.114566  0.764363  0.068804
  9H   1pz       -0.003462  0.005950 -0.002520 -0.007701 -0.003549  0.006192
  9H   1px        0.011674 -0.009622  0.000675  0.008188  0.007872 -0.016739
  9H   1py        0.007728  0.019112 -0.018931 -0.038420 -0.004679 -0.000954
                     30        31        32        33        34        35   
                   0.30345   0.31508   0.31583   0.35034   0.35359   0.35979
                   0.00000   0.00000   0.00000   0.00000   0.00000   0.00000
                  --------  --------  --------  --------  --------  --------
  0C   1s        -0.000564 -0.037806 -0.022552 -0.080662 -0.004095 -0.011248
  0C   2s         0.018596  0.595809  0.345955  0.518083  0.029016 -0.093450
  0C   3s        -0.173075 -1.699356 -0.938283 -0.192870 -0.030798  1.493809
  0C   1pz       -0.085074  0.008666  0.076652  0.017275  0.399746  0.080829
  0C   1px        0.299781  0.029824 -0.236585 -0.112459  0.140293 -0.298493
  0C   1py        0.230262  0.173803 -0.087033 -0.013583 -0.051684 -0.225656
[...]
 3 C  s               0.0       1.9       1.6       5.5       0.2       0.0
 3 C  pz              0.0       0.0       0.1       0.0       0.0       0.2
 3 C  px              0.0       0.0       0.6       0.2       0.1       0.7
 3 C  py              0.0       2.5       0.0       0.0       6.1       0.5
 3 C  dz2             0.0       0.6       2.5       8.7       0.8       0.2
 3 C  dxz             0.6       0.0       2.8       9.2       0.0       0.1
 3 C  dyz             9.6       0.1       0.1       0.2       0.5       0.8
 3 C  dx2y2           0.4       2.3       1.0       3.6       4.4       0.4
 3 C  dxy             1.2       0.0       0.0       0.1       0.6       7.9
 4 C  s               0.0       1.9       5.8       1.3       0.1       0.2
 4 C  pz              0.0       0.2       0.0       0.0       0.1       0.6
 4 C  px              0.0       2.1       0.0       0.1       1.3       4.2
 4 C  py              0.0       0.3       0.2       0.6       1.4       0.1
 4 C  dz2             0.1       0.3      11.3       2.5       0.0       0.6
 4 C  dxz             0.0       0.6       3.1       0.8       1.6       0.1
 4 C  dyz             0.6       0.1       2.2       0.6       0.1       0.6
 4 C  dx2y2           0.0       1.2       5.4       1.0       5.4       0.1
 4 C  dxy             0.1       0.8       1.0       0.4       1.5       5.8
 5 H  s               0.0       2.8       0.5       0.0       1.5       2.5
 5 H  pz              1.8       0.9       0.2       0.0       0.2       0.8
 5 H  px              0.3       2.8       0.7       0.3       0.4       3.3
 5 H  py              0.0       6.1       2.0       0.0       4.1       3.4
 6 H  s               0.0       2.7       0.2       0.3       3.6       0.5
 6 H  pz              4.6       0.1       0.1       0.0       0.1       0.2
 6 H  px              0.6       3.1       0.9       0.2       2.6       1.5
 6 H  py              0.1       6.5       0.6       1.5       7.7       0.3
 7 H  s               0.0       2.8       0.0       0.5       0.0       4.0
 7 H  pz              4.5       1.3       0.0       0.4       0.0       1.6
 7 H  px              0.6       7.7       0.0       2.3       0.0       9.2
 7 H  py              0.1       0.8       0.3       0.2       0.6       0.9
 8 H  s               0.0       2.8       0.1       0.4       3.7       0.3
 8 H  pz              1.7       0.1       0.1       0.0       0.1       0.1
 8 H  px              0.2       0.0       0.2       0.1       0.1       0.5
 8 H  py              0.0       9.6       0.6       2.3      10.6       0.9
 9 H  s               0.0       2.8       0.4       0.1       1.3       2.8
 9 H  pz              0.0       0.9       0.2       0.1       0.2       0.9
 9 H  px              0.0       7.9       1.8       0.6       2.4       7.0
 9 H  py              0.0       1.0       0.5       0.0       1.6       0.2

                     90        91        92        93        94   
                   3.04895   3.04916   3.39666   3.65762   3.65765
                   0.00000   0.00000   0.00000   0.00000   0.00000
                  --------  --------  --------  --------  --------
 0 C  s               2.4       1.6       0.0       0.5       0.6
 0 C  px              0.2       0.3       1.2       0.0       0.4
 0 C  py              0.2       0.1       0.7       0.6       0.2
 0 C  dz2             0.5       1.5       0.2       0.5       0.4
 0 C  dxz             3.0       0.3       1.9       0.2       0.5
 0 C  dyz             0.6       0.4       0.0       2.1       2.2
 0 C  dx2y2           3.8      12.6      12.6       2.1       0.6
 0 C  dxy             4.1       0.0       1.3       8.3      10.2
 1 C  s               0.5       3.4       0.0       0.0       1.1
 1 C  pz              0.1       0.0       0.3       0.0       0.0
 1 C  px              0.4       0.1       1.1       0.1       0.4
 1 C  py              0.3       0.0       0.7       0.0       0.9
 1 C  dz2             0.1       2.5       0.1       0.0       2.6
 1 C  dxz             2.0       0.0       1.3       0.0       0.0
 1 C  dyz             1.0       0.0       0.8       0.1       1.3
 1 C  dx2y2          12.0       4.3      12.5       0.1       2.7
 1 C  dxy             3.4       1.5       1.3       0.6      19.7
 2 C  s               3.9       0.0       0.0       0.2       0.8
 2 C  pz              0.0       0.0       0.0       0.0       0.1
 2 C  px              0.1       0.1       0.2       0.3       0.7
 2 C  py              0.0       0.7       1.9       0.0       0.2
 2 C  dz2             1.4       0.0       0.0       0.1       0.2
 2 C  dxz             2.7       0.2       0.2       1.4       4.5
 2 C  dyz             0.2       2.5       1.9       0.0       0.6
 2 C  dx2y2           1.9       5.7       4.8       3.8       9.4
 2 C  dxy             0.6      11.7       9.1       0.7       6.4
 3 C  s               0.3       3.7       0.0       0.9       0.2
 3 C  pz              0.1       0.0       0.3       0.0       0.0
 3 C  px              0.6       0.0       1.8       0.0       0.1
 3 C  py              0.0       0.1       0.0       1.0       0.3
 3 C  dz2             0.0       2.6       0.1       2.0       0.6
 3 C  dxz             0.3       0.1       0.2       0.5       0.2
 3 C  dyz             2.7       0.0       1.9       0.7       0.0
 3 C  dx2y2           0.2       3.5       0.0      18.3       4.5
 3 C  dxy            16.1       1.5      13.8       0.0       0.3
 4 C  s               2.8       1.2       0.0       1.0       0.0
 4 C  pz              0.0       0.0       0.1       0.1       0.0
 4 C  px              0.0       0.1       0.2       1.0       0.0
 4 C  py              0.2       0.5       1.8       0.1       0.2
 4 C  dz2             0.7       1.3       0.2       0.9       0.1
 4 C  dxz             3.4       0.1       1.2       3.4       0.0
 4 C  dyz             0.1       0.8       0.7       1.4       0.1
 4 C  dx2y2           5.8       1.9       4.8      13.0       0.1
 4 C  dxy             0.8      12.0       9.0       7.3       0.8
 5 H  s               1.0       0.6       0.0       2.5       2.7
 5 H  pz              0.1       0.4       0.1       0.3       0.2
 5 H  px              0.0       2.8       1.2       1.2       0.4
 5 H  py              3.4       0.0       0.7       1.1       2.1
 6 H  s               0.2       1.4       0.0       0.1       5.1
 6 H  pz              0.2       0.2       0.2       0.0       0.1
 6 H  px              0.6       2.2       1.1       0.0       1.7
 6 H  py              2.1       1.4       0.6       0.3       3.1
 7 H  s               1.6       0.0       0.0       1.1       4.1
 7 H  pz              0.5       0.0       0.0       0.1       0.5
 7 H  px              3.0       0.4       0.2       0.6       3.3
 7 H  py              0.4       2.4       1.8       0.5       0.1
 8 H  s               0.1       1.5       0.0       4.2       1.0
 8 H  pz              0.3       0.1       0.2       0.0       0.1
 8 H  px              2.3       0.1       1.7       0.0       0.1
 8 H  py              0.3       3.5       0.0       4.0       0.9
 9 H  s               1.1       0.5       0.0       5.0       0.1
 9 H  pz              0.1       0.4       0.1       0.4       0.0
 9 H  px              1.5       1.8       0.1       3.8       0.2
 9 H  py              1.9       0.9       1.7       0.6       0.1


                      *****************************
                      * MAYER POPULATION ANALYSIS *
                      *****************************

  NA   - Mulliken gross atomic population
  ZA   - Total nuclear charge
  QA   - Mulliken gross atomic charge
  VA   - Mayer's total valence
  BVA  - Mayer's bonded valence
  FA   - Mayer's free valence

  ATOM       NA         ZA         QA         VA         BVA        FA
  0 C      6.0578     6.0000    -0.0578     3.7907     3.7907     0.0000
  1 C      6.0576     6.0000    -0.0576     3.7906     3.7906     0.0000
  2 C      6.0576     6.0000    -0.0576     3.7907     3.7907     0.0000
  3 C      6.0579     6.0000    -0.0579     3.7908     3.7908     0.0000
  4 C      6.0577     6.0000    -0.0577     3.7906     3.7906     0.0000
  5 H      1.1423     1.0000    -0.1423     0.9533     0.9533    -0.0000
  6 H      1.1423     1.0000    -0.1423     0.9533     0.9533     0.0000
  7 H      1.1423     1.0000    -0.1423     0.9533     0.9533    -0.0000
  8 H      1.1423     1.0000    -0.1423     0.9533     0.9533     0.0000
  9 H      1.1422     1.0000    -0.1422     0.9533     0.9533    -0.0000

  Mayer bond orders larger than 0.100000
B(  0-C ,  1-C ) :   1.3752 B(  0-C ,  4-C ) :   1.3754 B(  0-C ,  5-H ) :   0.9688 
B(  1-C ,  2-C ) :   1.3753 B(  1-C ,  6-H ) :   0.9689 B(  2-C ,  3-C ) :   1.3754 
B(  2-C ,  7-H ) :   0.9689 B(  3-C ,  4-C ) :   1.3751 B(  3-C ,  8-H ) :   0.9689 
B(  4-C ,  9-H ) :   0.9689 

-------
TIMINGS
-------

Total SCF time: 0 days 0 hours 0 min 2 sec 

Total time                  ....       2.618 sec
Sum of individual times     ....       2.301 sec  ( 87.9%)

SCF preparation             ....       0.027 sec  (  1.0%)
Fock matrix formation       ....       2.244 sec  ( 85.7%)
  Startup                   ....       0.000 sec  (  0.0% of F)
  Split-RI-J                ....       0.109 sec  (  4.8% of F)
  Chain of spheres X        ....       2.029 sec  ( 90.4% of F)
  XC integration            ....       0.389 sec  ( 17.3% of F)
    XC Preparation          ....       0.000 sec  (  0.0% of XC)
    Basis function eval.    ....       0.156 sec  ( 40.2% of XC)
    Density eval.           ....       0.087 sec  ( 22.4% of XC)
    XC-Functional eval.     ....       0.033 sec  (  8.4% of XC)
    XC-Potential eval.      ....       0.097 sec  ( 25.1% of XC)
Diagonalization             ....       0.000 sec  (  0.0%)
Density matrix formation    ....       0.000 sec  (  0.0%)
Total Energy calculation    ....       0.000 sec  (  0.0%)
Population analysis         ....       0.021 sec  (  0.8%)
Orbital Transformation      ....       0.005 sec  (  0.2%)
Orbital Orthonormalization  ....       0.000 sec  (  0.0%)
DIIS solution               ....       0.001 sec  (  0.0%)
  MO trafo                  ....       0.000 sec  (  0.0 % of DIIS)
  Orb grad                  ....       0.000 sec  (  0.0 % of DIIS)
  Energy W gradient         ....       0.000 sec  (  0.0 % of DIIS)
  DIIS error                ....       0.000 sec  ( 11.5 % of DIIS)
  DIIS work                 ....       0.001 sec  ( 86.2 % of DIIS)
  Form Q                    ....       0.000 sec  (  0.0 % of DIIS)
  Form QpQm                 ....       0.000 sec  (  0.0 % of DIIS)
  Exp/Cayley                ....       0.000 sec  (  0.0 % of DIIS)
  Orb update                ....       0.000 sec  (  0.0 % of DIIS)
  Wake-sleep                ....       0.000 sec  (  2.4 % of DIIS)
SOSCF solution              ....       0.002 sec  (  0.1%)
  MO trafo                  ....       0.001 sec  ( 49.9 % of SOSCF)
  Orb grad                  ....       0.000 sec  (  1.2 % of SOSCF)
  Rot update                ....       0.000 sec  (  3.3 % of SOSCF)
  Step                      ....       0.001 sec  ( 33.5 % of SOSCF)
Finished LeanSCF after   2.6 sec

Maximum memory used throughout the entire LEANSCF-calculation: 10.9 MB

-------------------------   --------------------
FINAL SINGLE POINT ENERGY      -193.245608426634
-------------------------   --------------------

                                *** OPTIMIZATION RUN DONE ***


------------------------------------------------------------------------------
                              ORCA PROPERTY CALCULATIONS
------------------------------------------------------------------------------

GBWName                                 ... anion.gbw
Number of atoms                         ...     10
Number of basis functions               ...     95
Max core memory                         ...   4096 MB

Electric properties:
Dipole moment                           ... YES
Quadrupole moment                       ...  NO
Static polarizability (Dipole/Dipole)   ...  NO
Static polarizability (Dipole/Quad.)    ...  NO
Static polarizability (Quad./Quad.)     ...  NO
Static polarizability (Velocity)        ...  NO
Static hyperpolarizability              ...  NO

Atomic electric properties:
Dipole moment                           ...  NO
Quadrupole moment                       ...  NO
Static polarizability                   ...  NO

Choice of electric origin               ... Center of mass
Position of electric origin             ...    -1.420607     1.950240     0.232217

General magnetic properties:
Magnetizability                         ...  NO

EPR properties:
g-Tensor (aka g-matrix)                 ...  NO
Zero-Field splitting spin-orbit         ...  NO
Zero-field splitting spin-spin          ...  NO
Hyperfine couplings                     ...  NO (   0 nuclei)
Quadrupole couplings                    ...  NO (   0 nuclei)
Contact density                         ...  NO (   0 nuclei)

NMR properties:
Chemical shifts                         ...  NO (   0 nuclei)
Spin-rotation constants                 ...  NO (   0 nuclei)
Spin-spin couplings                     ...  NO (   0 nuclei,    0 pairs)

Choice of magnetic origin               ... GIAO
Position of magnetic origin             ...     0.000000     0.000000     0.000000

Properties with geometric perturbations:
SCF Hessian                             ...  NO
IR spectrum                             ...  NO
VCD spectrum                            ...  NO
X-ray spectroscopy properties:
SCF XES/XAS/RIXS spectra                ...  NO

SCF SOC stabilization energy            ...  NO
Diagonal Born-Oppenheimer correction    ...  NO

-------------
DIPOLE MOMENT
-------------

Method             : SCF
Type of density    : Electron Density
Multiplicity       :   1
Irrep              :   0
Energy             :  -193.2456084266344192 Eh
Basis              : AO
                                X                 Y                 Z
Electronic contribution:     -0.000011114      -0.000094028      -0.000118362
Nuclear contribution   :     -0.000040959       0.000128914       0.000204332
                        -----------------------------------------
Total Dipole Moment    :     -0.000052073       0.000034885       0.000085971
                        -----------------------------------------
Magnitude (a.u.)       :      0.000106393
Magnitude (Debye)      :      0.000270430



--------------------
Rotational spectrum 
--------------------
 
Rotational constants in cm-1:             0.295722             0.295713             0.147859 
Rotational constants in MHz :          8865.530368          8865.239113          4432.692427 

Dipole components along the rotational axes: 
x,y,z [a.u.] :     0.000010     0.000089     0.000058 
x,y,z [Debye]:     0.000025     0.000226     0.000147 

 

Dipole moment calculation done in   0.0 sec 

Maximum memory used throughout the entire PROP-calculation: 5.9 MB

--------------------------------
SUGGESTED CITATIONS FOR THIS RUN
--------------------------------

Below you find a list of papers that are relevant to this ORCA run
We neither can nor want to force you to cite these papers, but we appreciate if you do
You receive ORCA, which is the product of decades of hard work by many enthusiastic individuals, for free
The only thing we kindly ask in return is that you cite our papers,
We deeply appreciate it, if you show your appreciation for ORCA by not just citing the generic ORCA reference.

Please note that relegating all ORCA citations to the supporting information does *not* help us.
SI sections are not indexed - citations you put there will not count into any citation statistics
But we need these citations in order to attract the funding resources that allow us to do what we are doing

Therefore, if you are a happy ORCA user, please consider citing a few of the papers listed below in the main body of your paper

In addition to the list printed below, the program has created the file anion.bibtex that contains the list in bibtex format
You can import this file easily into all common literature databanks and citation aid programs


List of essential papers. We consider these as the minimum necessary citations

  1. Neese, F.
     Software update: the ORCA program system, version 6.0
     WIRES Comput. Molec. Sci. 2025 15(1), e70019
     doi.org/10.1002/wcms.7019

List of papers to cite with high priority. The work reported in these papers was absolutely
necessary for this run to complete.
Our perspective: the developers of density functionals and basis sets usually get cited in chemistry papers
Good! But without the algorithms to do something with them, the functionals or basis sets would not do anything.
Hence, in our opinion, the algorithm design and method developments papers are equally worthy of getting cited

  1. Neese, F.
     An improvement of the resolution of the identity approximation for the formation of the Coulomb matrix
     J. Comp. Chem. 2003 24(14), 1740-1747
     doi.org/10.1002/jcc.10318
  2. Neese, F.; Wennmohs, F.; Hansen, A.; Becker, U.
     Efficient, approximate and parallel Hartree-Fock and hybrid DFT calculations. A 'chain-of-spheres' algorithm for the Hartree-Fock exchange
     Chem. Phys. 2009 356(1-3), 98-109
     doi.org/10.1016/j.chemphys.2008.10.036
  3. Helmich-Paris, B.; de Souza, B.; Neese, F.; Izsák, R.
     An improved chain of spheres for exchange algorithm
     J. Chem. Phys. 2021 155(10), 104109
     doi.org/10.1063/5.0058766
  4. Neese, F.
     The SHARK Integral Generation and Digestion System
     J. Comp. Chem. 2022 44(3), 381
     doi.org/10.1002/jcc.26942

List of suggested additional citations. These are papers that are important in the 'surrounding' of 
of this run, or papers that preceded the highly important papers. If you like your results we are grateful for a citation.

  1. Izsak, R.; Neese, F.
     An overlap fitted chain of spheres exchange method
     J. Chem. Phys. 2011 135 , 144105
     doi.org/10.1063/1.3646921
  2. Izsak, R.; Hansen, A.; Neese, F.
     The resolution of identity and chain of spheres approximations for the LPNO-CCSD singles Fock term
     Molec. Phys. 2012 110 , 2413-2417
     doi.org/10.1080/00268976.2012.687466
  3. Neese, F.
     The ORCA program system
     WIRES Comput. Molec. Sci. 2012 2(1), 73-78
     doi.org/10.1002/wcms.81
  4. Izsak, R.; Neese, F.; Klopper, W.
     Robust fitting techniques in the chain of spheres approximation to the Fock exchange: The role of the complementary space
     J. Chem. Phys. 2013 139 , 
     doi.org/10.1063/1.4819264
  5. Neese, F.
     Software update: the ORCA program system, version 4.0
     WIRES Comput. Molec. Sci. 2018 8(1), 1-6
     doi.org/10.1002/wcms.1327
  6. Neese, F.; Wennmohs, F.; Becker, U.; Riplinger, C.
     The ORCA quantum chemistry program package
     J. Chem. Phys. 2020 152(22), 224108
     doi.org/10.1063/5.0004608
  7. Neese, F.
     Software update: The ORCA program system—Version 5.0
     WIRES Comput. Molec. Sci. 2022 12(1), e1606
     doi.org/10.1002/wcms.1606

List of optional additional citations

  1. Neese, F.
     Approximate second-order SCF convergence for spin unrestricted wavefunctions
     Chem. Phys. Lett. 2000 325(1-3), 93-98
     doi.org/10.1016/s0009-2614(00)00662-x

Timings for individual modules:

Sum of individual times          ...       49.621 sec (=   0.827 min)
Startup calculation              ...        1.833 sec (=   0.031 min)   3.7 %
SCF iterations                   ...       23.010 sec (=   0.384 min)  46.4 %
Property calculations            ...        0.025 sec (=   0.000 min)   0.1 %
SCF Gradient evaluation          ...       24.732 sec (=   0.412 min)  49.8 %
Geometry relaxation              ...        0.021 sec (=   0.000 min)   0.0 %
                             ****ORCA TERMINATED NORMALLY****
TOTAL RUN TIME: 0 days 0 hours 0 minutes 49 seconds 749 msec
