
                                 *****************
                                 * O   R   C   A *
                                 *****************

                                            #,                                       
                                            ###                                      
                                            ####                                     
                                            #####                                    
                                            ######                                   
                                           ########,                                 
                                     ,,################,,,,,                         
                               ,,#################################,,                 
                          ,,##########################################,,             
                       ,#########################################, ''#####,          
                    ,#############################################,,   '####,        
                  ,##################################################,,,,####,       
                ,###########''''           ''''###############################       
              ,#####''   ,,,,##########,,,,          '''####'''          '####       
            ,##' ,,,,###########################,,,                        '##       
           ' ,,###''''                  '''############,,,                           
         ,,##''                                '''############,,,,        ,,,,,,###''
      ,#''                                            '''#######################'''  
     '                                                          ''''####''''         
             ,#######,   #######,   ,#######,      ##                                
            ,#'     '#,  ##    ##  ,#'     '#,    #''#        ,####,    ,#,          
            ##       ##  ##   ,#'  ##            #'  '#       #'       ,# #          
            ##       ##  #######   ##           ,######,      #####,      #          
            '#,     ,#'  ##    ##  '#,     ,#' ,#      #,     #,   #      #          
             '#######'   ##     ##  '#######'  #'      '#     '####' #    #          



                #########################################################
                #                        -***-                          #
                #          Department of theory and spectroscopy        #
                #                                                       #
                #                      Frank Neese                      #
                #                                                       #
                #     Directorship, Architecture, Infrastructure        #
                #                    SHARK, DRIVERS                     #
                #        Core code/Algorithms in most modules           #
                #                                                       #
                #        Max Planck Institute fuer Kohlenforschung      #
                #                Kaiser Wilhelm Platz 1                 #
                #                 D-45470 Muelheim/Ruhr                 #
                #                      Germany                          #
                #                                                       #
                #                  All rights reserved                  #
                #                        -***-                          #
                #########################################################


                         Program Version 6.1.0  -  RELEASE   -
                                (GIT: $679e74b$)
                          ($2025-06-10 18:02:51 +0200$)


 With contributions from (in alphabetic order):
[Max-Planck-Institut fuer Kohlenforschung]                               
  Daniel Aravena         : Magnetic Suceptibility                        
  Michael Atanasov       : Ab Initio Ligand Field Theory (pilot matlab implementation)
  Alexander A. Auer      : GIAO ZORA, VPT2 properties, NMR spectrum      
  Ute Becker             : All parallelization in ORCA, NUMFREQ, NUMCALC 
  Giovanni Bistoni       : ED, misc. LED, open-shell LED, HFLD           
  Dmytro Bykov           : pre 5.0 version of the SCF Hessian            
  Marcos Casanova-Páez   : Triplet and SCS-CIS(D). UHF-(DLPNO)-IP/EA/STEOM-CCSD. UHF-CVS-IP/STEOM-CCSD   
  Vijay G. Chilkuri      : MRCI spin determinant printing, contributions to CSF-ICE 
  Pauline Colinet        : FMM embedding                                 
  Dipayan Datta          : RHF DLPNO-CCSD density                        
  Achintya Kumar Dutta   : EOM-CC, STEOM-CC                              
  Nicolas Foglia         : Exact transition moments, OPA infrastructure, MCD improvements    
  Dmitry Ganyushin       : Spin-Orbit,Spin-Spin,Magnetic field MRCI      
  Miquel Garcia-Rates    : C-PCM and meta-GGA Hessian, CCSD/C-PCM, Gaussian charge scheme 
  Tiago L. C. Gouveia    : GS-ROHF, GS-ROCIS                             
  Yang Guo               : DLPNO-NEVPT2, F12-NEVPT2, CIM, IAO-localization        
  Andreas Hansen         : Spin unrestricted coupled pair/coupled cluster methods 
  Ingolf Harden          : AUTO-CI MPn and infrastructure                
  Benjamin Helmich-Paris : MC-RPA, TRAH-(SCF,CASSCF), AVAS, COSX integrals, SCF dyn. polar., MC-PDFT, srDFT 
  Lee Huntington         : MR-EOM, pCC                                   
  Robert Izsak           : Overlap fitted RIJCOSX, COSX-SCS-MP3, EOM     
  Riya Kayal             : Wick's Theorem for AUTO-CI, AUTO-CI UHF-CCSDT 
  Emily Kempfer          : AUTO-CI RHF CISDT and CCSDT, approximate NEVPT4
  Christian Kollmar      : KDIIS, OOCD, Brueckner-CCSD(T), CCSD density, CASPT2, CASPT2-K, improved NEVPT2 
  Axel Koslowski         : Symmetry handling                             
  Simone Kossmann        : meta-GGA functionals, TD-DFT gradient, OOMP2, (MP2 Hessian; deprecated post 5.0) 
  Lucas Lang             : DCDCAS, Hyperfine gauge corrections, ICE-SOC+SSC
  Marvin Lechner         : AUTO-CI (C++ implementation), FIC-MRCC        
  Spencer Leger          : CASSCF response                               
  Dagmar Lenk            : GEPOL surface, SMD, ORCA-2-JSON               
  Dimitrios Liakos       : Extrapolation schemes; Compound Job, Property file
  Dimitrios Manganas     : Further ROCIS development; embedding schemes. LFT, Crystal Embedding 
  Dimitrios Pantazis     : SARC Basis sets                               
  Anastasios Papadopoulos: AUTO-CI, single reference methods and gradients 
  Taras Petrenko         : pre 6.0 DFT Hessian and TD-DFT gradient,  ECA, NRVS 
  Petra Pikulova         : Analytic Raman intensities                    
  Peter Pinski           : DLPNO-MP2, DLPNO-MP2 Gradient                 
  Shashank Vittal Rao    : ES-AILFT, MagRelax                            
  Christoph Reimann      : Effective Core Potentials                     
  Marius Retegan         : Local ZFS, SOC                                
  Christoph Riplinger    : Optimizer, TS searches, QM/MM, DLPNO-CCSD(T), (RO)-DLPNO pert. Triples 
  Michael Roemelt        : Original ROCIS implementation, recursive CI coupling coefficients
  Masaaki Saitow         : Open-shell DLPNO-CCSD energy and density      
  Barbara Sandhoefer     : DKH picture change effects                    
  Yorick L. A. Schmerwitz: GMF and freeze-and-release deltaSCF, NEB S-IDPP initial path                    
  Kantharuban Sivalingam : CASSCF convergence/infrastructure, NEVPT2, NEVPT3, NEVPT4(SD), FIC-MRCI and CEPA variants
  Bernardo de Souza      : ESD, SOC TD-DFT                               
  Georgi L. Stoychev     : AutoAux, RI-MP2 NMR, DLPNO-MP2 response, X2C  
  Van Anh Tran           : RI-MP2 g-tensors                              
  Willem Van den Heuvel  : Paramagnetic NMR                              
  Zikuan Wang            : NOTCH, Electric field optimization            
  Frank Wennmohs         : Technical directorship and infrastructure     
  Hang Xu                : AUTO-CI-Response properties                   
                                                                         
[FACCTs GmbH]                                                            
  Markus Bursch, Nicolas Foglia, Miquel Garcia-Rates, Ingolf Harden, Hagen Neugebauer, Anastasios Papadopoulos, 
  Christoph Riplinger, Bernardo de Souza, Georgi L. Stoychev                                                    
                                                                 
  APM, various basis sets, CI-OPT, improved COSX, DLPNO-Multilevel,           
  DOCKER, DRACO, updates on ESD, Fragmentator, GOAT, IRC, LR-CPCM, L-BFGS, MBIS, meta-GGA TD-DFT gradient, ML-optimized integration grids, 
  MM, NACMEs, nearIR, NEB, NEB-TS, NL-DFT gradient (VV10), 2- and 3-layer-ONIOM, interface openCOSMO-RS, QMMM,   
  Crystal-QMMM, RESP, rigid body optimization, SF, symmetry and pop. for TD-DFT, various functionals, SOLVATOR                                   
                                                                         
[Other institutions]                                                     
  V. Asgeirsson          : NEB                                           
  Christoph Bannwarth    : sTDA-DFT, sTD-DFT, PBEh-3c, B97-3c, D3        
  Giovanni Bistoni       : ETS/NOCV, ADLD/ADEX, COVALED                  
  Martin Brehm           : Molecular dynamics                            
  Ronald Cardenas        : ETS/NOCV                                      
  Martina Colucci        : COVALED                                       
  Sebastian Ehlert       : rSCAN, r2SCAN, r2SCAN-3c, D4, dhf basis sets  
  Marvin Friede          : D4 for Fr, Ra, Ac-Lr                          
  Lars Goerigk           : TD-DFT with DH, B97 family of functionals     
  Stefan Grimme          : VdW corrections, initial TS optimization, DFT functionals, gCP, sTDA/sTD-DF 
  Waldemar Hujo          : DFT-NL                                        
  H. Jonsson             : NEB                                           
  Holger Kruse           : gCP                                           
  Marcel Mueller         : wB97X-3c, vDZP basis set                      
  Hagen Neugebauer       : wr2SCAN, Native XTB                           
  Gianluca Regni         : ADLD/ADEX                                     
  Tobias Risthaus        : pre 6.0 range-separated hybrid DFT and stability analysis
  Lukas Wittmann         : regularized MP2, r2SCAN double-hybrids, wr2SCAN        
                                                                         
We gratefully acknowledge several colleagues who have allowed us to      
interface, adapt or use parts of their codes:                            
  Ed Valeev, F. Pavosevic, A. Kumar             : LibInt (2-el integral package), F12 methods 
  Garnet Chan, S. Sharma, J. Yang, R. Olivares  : DMRG                   
  Ulf Ekstrom                                   : XCFun DFT Library      
  Mihaly Kallay                                 : mrcc  (arbitrary order and MRCC methods)
  Frank Weinhold                                : gennbo (NPA and NBO analysis)           
  Simon Mueller                                 : openCOSMO-RS                            
  Christopher J. Cramer and Donald G. Truhlar   : smd solvation model                     
  S Lehtola, MJT Oliveira, MAL Marques          : LibXC Library                           
  Liviu Ungur et al                             : ANISO software                          


 Your calculation uses the libint2 library for the computation of 2-el integrals
 For citations please refer to: http://libint.valeyev.net

 Your ORCA version has been built with support for libXC version: 7.0.0
 For citations please refer to: https://libxc.gitlab.io

 This ORCA versions uses:
   CBLAS   interface :  Fast vector & matrix operations
   LAPACKE interface :  Fast linear algebra routines
   SCALAPACK package :  Parallel linear algebra routines
   Shared memory     :  Shared parallel matrices
   BLAS/LAPACK       :  OpenBLAS 0.3.29  USE64BITINT DYNAMIC_ARCH NO_AFFINITY Haswell SINGLE_THREADED
        Core in use  :  Haswell
   Copyright (c) 2011-2014, The OpenBLAS Project


  ***********************************
  * Starting time: Tue Nov 25 09:30:53 2025
  * Host name:     PC-44
  * Process ID:    13923
  * Working dir.:  /home/m.dutkiewicz/chemia_obliczeniowa/cw_3
  ***********************************

Warning: RI is on but no J-basis has been assigned. Assigning Def2/J (nothing to worry about!)
================================================================================

----- Orbital basis set information -----
Your calculation utilizes the basis: def2-SVP
   F. Weigend and R. Ahlrichs, Phys. Chem. Chem. Phys. 7, 3297 (2005).

----- AuxJ basis set information -----
Your calculation utilizes the auxiliary basis: def2/J
   H-Rn: F. Weigend, Phys. Chem. Chem. Phys. 8, 1057 (2006).
   Fr-Lr: K. Eichkorn, F. Weigend, O. Treutler, R. Ahlrichs; Theor. Chem. Acc. 97, 119 (1997).

================================================================================
                                        WARNINGS
                       Please study these warnings very carefully!
================================================================================


WARNING: Geometry Optimization
  ===> : Switching off AutoStart
         For restart on a previous wavefunction, please use MOREAD

================================================================================
                                       INPUT FILE
================================================================================
NAME = cyklopentadien.inp
|  1> !B3LYP def2-SVP Opt Largeprint
|  2> * xyz 0 1
|  3>  C        -0.112670        0.102670       -0.207470
|  4>  C        -1.456210        0.057220        0.098700
|  5>  C        -1.980050        1.434260        0.323120
|  6>  C        -0.745570        2.238680        0.099550
|  7>  C         0.313470        1.410820       -0.206970
|  8>  H         0.503060       -0.762440       -0.414590
|  9>  H        -2.037510       -0.852910        0.163980
| 10>  H        -2.767270        1.690960       -0.416300
| 11>  H        -2.358630        1.557170        1.359410
| 12>  H        -0.679290        3.316510        0.165630
| 13>  H         1.320610        1.747420       -0.413610
| 14> *
| 15> 
| 16>                          ****END OF INPUT****
================================================================================

                       *****************************
                       * Geometry Optimization Run *
                       *****************************

Geometry optimization settings:
Update method            Update   .... BFGS
Choice of coordinates    CoordSys .... (2022) Redundant Internals
Initial Hessian          InHess   .... Almloef's Model
Max. no of cycles        MaxIter  .... 50

Convergence Tolerances:
Energy Change            TolE     ....  5.0000e-06 Eh
Max. Gradient            TolMAXG  ....  3.0000e-04 Eh/bohr
RMS Gradient             TolRMSG  ....  1.0000e-04 Eh/bohr
Max. Displacement        TolMAXD  ....  4.0000e-03 bohr
RMS Displacement         TolRMSD  ....  2.0000e-03 bohr
Strict Convergence                .... False

------------------------------------------------------------------------------
                        ORCA OPTIMIZATION COORDINATE SETUP
------------------------------------------------------------------------------

The optimization will be done in redundant internal coordinates (2022)
Making redundant internal coordinates   ...  (2022 redundants) done
Evaluating the initial hessian          ...  (Almloef) done
Evaluating the coordinates              ...  done
Calculating the B-matrix                .... done
Calculating the G-matrix                .... done
The number of degrees of freedom        ....   51

    -----------------------------------------------------------------
                    Redundant Internal Coordinates


    -----------------------------------------------------------------
         Definition                    Initial Value    Approx d2E/dq
    -----------------------------------------------------------------
      1. B(C   1,C   0)                  1.3787         0.651199   
      2. B(C   2,C   1)                  1.4903         0.432222   
      3. B(C   3,C   2)                  1.4903         0.432220   
      4. B(C   4,C   3)                  1.3787         0.651228   
      5. B(C   4,C   0)                  1.3758         0.658231   
      6. B(H   5,C   0)                  1.0819         0.371020   
      7. B(H   6,C   1)                  1.0819         0.370976   
      8. B(H   7,C   2)                  1.1101         0.334452   
      9. B(H   8,C   2)                  1.1101         0.334466   
     10. B(H   9,C   3)                  1.0819         0.370995   
     11. B(H  10,C   4)                  1.0818         0.371088   
     12. A(C   1,C   0,H   5)          124.8034         0.357669   
     13. A(C   4,C   0,H   5)          125.7399         0.358322   
     14. A(C   1,C   0,C   4)          109.4567         0.442680   
     15. A(C   2,C   1,H   6)          125.4051         0.333859   
     16. A(C   0,C   1,C   2)          110.2127         0.410562   
     17. A(C   0,C   1,H   6)          124.3822         0.357661   
     18. A(H   7,C   2,H   8)          110.7535         0.284202   
     19. A(C   3,C   2,H   8)          111.2703         0.328183   
     20. A(C   1,C   2,H   8)          111.2692         0.328184   
     21. A(C   3,C   2,H   7)          111.2641         0.328181   
     22. A(C   1,C   2,H   7)          111.2612         0.328181   
     23. A(C   1,C   2,C   3)          100.6608         0.382072   
     24. A(C   2,C   3,H   9)          125.4033         0.333861   
     25. A(C   4,C   3,H   9)          124.3832         0.357667   
     26. A(C   2,C   3,C   4)          110.2135         0.410565   
     27. A(C   0,C   4,C   3)          109.4563         0.442683   
     28. A(C   3,C   4,H  10)          124.8023         0.357682   
     29. A(C   0,C   4,H  10)          125.7414         0.358334   
     30. D(C   2,C   1,C   0,H   5)   -179.9949         0.029534   
     31. D(C   2,C   1,C   0,C   4)      0.0074         0.029534   
     32. D(H   6,C   1,C   0,C   4)    179.9997         0.029534   
     33. D(H   6,C   1,C   0,H   5)     -0.0026         0.029534   
     34. D(C   3,C   2,C   1,H   6)    179.9961         0.013794   
     35. D(H   7,C   2,C   1,C   0)    117.9730         0.013794   
     36. D(C   3,C   2,C   1,C   0)     -0.0117         0.013794   
     37. D(H   7,C   2,C   1,H   6)    -62.0192         0.013794   
     38. D(H   8,C   2,C   1,C   0)   -118.0069         0.013794   
     39. D(H   9,C   3,C   2,H   7)     62.0226         0.013794   
     40. D(H   9,C   3,C   2,C   1)   -179.9949         0.013794   
     41. D(C   4,C   3,C   2,H   8)    118.0066         0.013794   
     42. D(C   4,C   3,C   2,C   1)      0.0122         0.013794   
     43. D(C   4,C   3,C   2,H   7)   -117.9704         0.013794   
     44. D(C   3,C   4,C   0,C   1)      0.0008         0.030221   
     45. D(H  10,C   4,C   3,H   9)      0.0018         0.029536   
     46. D(H  10,C   4,C   3,C   2)    179.9949         0.029536   
     47. D(C   0,C   4,C   3,H   9)    179.9982         0.029536   
     48. D(C   0,C   4,C   3,C   2)     -0.0087         0.029536   
     49. D(H  10,C   4,C   0,H   5)     -0.0005         0.030221   
     50. D(H  10,C   4,C   0,C   1)    179.9972         0.030221   
     51. D(C   3,C   4,C   0,H   5)   -179.9968         0.030221   
    -----------------------------------------------------------------

Number of atoms                         .... 11
Number of degrees of freedom            .... 51


         *************************************************************
         *                GEOMETRY OPTIMIZATION CYCLE   1            *
         *************************************************************
---------------------------------
CARTESIAN COORDINATES (ANGSTROEM)
---------------------------------
  C     -0.112670    0.102670   -0.207470
  C     -1.456210    0.057220    0.098700
  C     -1.980050    1.434260    0.323120
  C     -0.745570    2.238680    0.099550
  C      0.313470    1.410820   -0.206970
  H      0.503060   -0.762440   -0.414590
  H     -2.037510   -0.852910    0.163980
  H     -2.767270    1.690960   -0.416300
  H     -2.358630    1.557170    1.359410
  H     -0.679290    3.316510    0.165630
  H      1.320610    1.747420   -0.413610

----------------------------
CARTESIAN COORDINATES (A.U.)
----------------------------
  NO LB      ZA    FRAG     MASS         X           Y           Z
   0 C     6.0000    0    12.011   -0.212915    0.194018   -0.392061
   1 C     6.0000    0    12.011   -2.751838    0.108130    0.186516
   2 C     6.0000    0    12.011   -3.741752    2.710359    0.610608
   3 C     6.0000    0    12.011   -1.408923    4.230492    0.188122
   4 C     6.0000    0    12.011    0.592372    2.666063   -0.391117
   5 H     1.0000    0     1.008    0.950646   -1.440803   -0.783462
   6 H     1.0000    0     1.008   -3.850336   -1.611766    0.309877
   7 H     1.0000    0     1.008   -5.229382    3.195451   -0.786693
   8 H     1.0000    0     1.008   -4.457165    2.942625    2.568913
   9 H     1.0000    0     1.008   -1.283672    6.267296    0.312995
  10 H     1.0000    0     1.008    2.495591    3.302145   -0.781610

--------------------------------
INTERNAL COORDINATES (ANGSTROEM)
--------------------------------
 C      0   0   0     0.000000000000     0.00000000     0.00000000
 C      1   0   0     1.378733296544     0.00000000     0.00000000
 C      2   1   0     1.490305956373   110.21272017     0.00000000
 C      3   2   1     1.490307334646   100.66080068     0.00000000
 C      1   2   3     1.375809569708   109.45670761     0.00000000
 H      1   2   3     1.081867570177   124.80338230   180.00510698
 H      2   1   3     1.081900081015   124.38221967   179.99230202
 H      3   2   1     1.110113577433   111.26122787   117.97299527
 H      3   2   1     1.110102089269   111.26921371   241.99309180
 H      4   3   2     1.081885906046   125.40332130   180.00514969
 H      5   1   2     1.081818205245   125.74143987   179.99716128

---------------------------
INTERNAL COORDINATES (A.U.)
---------------------------
 C      0   0   0     0.000000000000     0.00000000     0.00000000
 C      1   0   0     2.605428342187     0.00000000     0.00000000
 C      2   1   0     2.816270113296   110.21272017     0.00000000
 C      3   2   1     2.816272717855   100.66080068     0.00000000
 C      1   2   3     2.599903299176   109.45670761     0.00000000
 H      1   2   3     2.044433420805   124.80338230   180.00510698
 H      2   1   3     2.044494857385   124.38221967   179.99230202
 H      3   2   1     2.097810638895   111.26122787   117.97299527
 H      3   2   1     2.097788929413   111.26921371   241.99309180
 H      4   3   2     2.044468070575   125.40332130   180.00514969
 H      5   1   2     2.044340134604   125.74143987   179.99716128

---------------------
BASIS SET INFORMATION
---------------------
There are 2 groups of distinct atoms

 Group   1 Type C   : 7s4p1d contracted to 3s2p1d pattern {511/31/1}
 Group   2 Type H   : 4s1p contracted to 2s1p pattern {31/1}

Atom   0C    basis set group =>   1
Atom   1C    basis set group =>   1
Atom   2C    basis set group =>   1
Atom   3C    basis set group =>   1
Atom   4C    basis set group =>   1
Atom   5H    basis set group =>   2
Atom   6H    basis set group =>   2
Atom   7H    basis set group =>   2
Atom   8H    basis set group =>   2
Atom   9H    basis set group =>   2
Atom  10H    basis set group =>   2

-------------------------
BASIS SET IN INPUT FORMAT
-------------------------

 # Basis set for element : H 
 NewGTO H 
 S 3 
   1      13.0107010000      0.0334854848
   2       1.9622572000      0.2347218709
   3       0.4445379600      0.8137702853
 S 1 
   1       0.1219496200      1.0000000000
 P 1 
   1       0.8000000000      1.0000000000
  end;

 # Basis set for element : C 
 NewGTO C 
 S 5 
   1    1238.4016938000      0.0055173650
   2     186.2900499200      0.0410888285
   3      42.2511763460      0.1822538213
   4      11.6765579320      0.4682845944
   5       3.5930506482      0.4457581734
 S 1 
   1       0.4024514736      1.0000000000
 S 1 
   1       0.1309018267      1.0000000000
 P 3 
   1       9.4680970621      0.0568883320
   2       2.0103545142      0.3129405934
   3       0.5477100471      0.7606501651
 P 1 
   1       0.1526861379      1.0000000000
 D 1 
   1       0.8000000000      1.0000000000
  end;

---------------------------------
AUXILIARY/J BASIS SET INFORMATION
---------------------------------
There are 2 groups of distinct atoms

 Group   1 Type C   : 12s5p4d2f1g contracted to 6s4p3d1f1g pattern {711111/2111/211/2/1}
 Group   2 Type H   : 5s2p1d contracted to 3s1p1d pattern {311/2/1}

Atom   0C    basis set group =>   1
Atom   1C    basis set group =>   1
Atom   2C    basis set group =>   1
Atom   3C    basis set group =>   1
Atom   4C    basis set group =>   1
Atom   5H    basis set group =>   2
Atom   6H    basis set group =>   2
Atom   7H    basis set group =>   2
Atom   8H    basis set group =>   2
Atom   9H    basis set group =>   2
Atom  10H    basis set group =>   2

-------------------------------------
AUXILIARY/J BASIS SET IN INPUT FORMAT
-------------------------------------

 # Auxiliary/J basis set for element : H 
 NewAuxJGTO H 
 S 3 
   1      15.6752927000      0.1007184237
   2       3.6063578000      0.3404257499
   3       1.2080016000      0.6491996172
 S 1 
   1       0.4726794000      1.0000000000
 S 1 
   1       0.2018100000      1.0000000000
 P 2 
   1       2.0281365000      0.5596620919
   2       0.5358730000      0.5596620919
 D 1 
   1       2.2165124000      1.0000000000
  end;

 # Auxiliary/J basis set for element : C 
 NewAuxJGTO C 
 S 7 
   1    1861.0916331000      0.0134602335
   2     642.9939764000      0.0299160374
   3     235.1105725000      0.1008649584
   4      90.7028894000      0.2370970548
   5      36.7794552000      0.3924037254
   6      15.6046273000      0.3195862154
   7       6.8907294000      0.0530104441
 S 1 
   1       3.1478850000     -1.0000000000
 S 1 
   1       1.4777287000      1.0000000000
 S 1 
   1       0.7076466000      1.0000000000
 S 1 
   1       0.3430122000      1.0000000000
 S 1 
   1       0.1669453000      1.0000000000
 P 2 
   1      13.5472892000     -0.6769313712
   2       5.4669419000     -0.3779500978
 P 1 
   1       2.1751721000      1.0000000000
 P 1 
   1       0.8582194000      1.0000000000
 P 1 
   1       0.3376720000      1.0000000000
 D 2 
   1       5.9287253000     -0.3533329857
   2       1.9809209000     -0.7456525731
 D 1 
   1       0.8055417000     -1.0000000000
 D 1 
   1       0.3531244000     -1.0000000000
 F 2 
   1       1.6755626000      0.6311076882
   2       0.5997536000      0.4968166032
 G 1 
   1       1.0024600000     -1.0000000000
  end;

------------------------------------------------------------------------------
                             ORCA STARTUP CALCULATIONS
                           -- RI-GTO INTEGRALS CHOSEN --
------------------------------------------------------------------------------
------------------------------------------------------------------------------
                   ___                                                        
                  /   \      - P O W E R E D   B Y -                         
                 /     \                                                     
                 |  |  |   _    _      __       _____    __    __             
                 |  |  |  | |  | |    /  \     |  _  \  |  |  /  |          
                  \  \/   | |  | |   /    \    | | | |  |  | /  /          
                 / \  \   | |__| |  /  /\  \   | |_| |  |  |/  /          
                |  |  |   |  __  | /  /__\  \  |    /   |      \           
                |  |  |   | |  | | |   __   |  |    \   |  |\   \          
                \     /   | |  | | |  |  |  |  | |\  \  |  | \   \       
                 \___/    |_|  |_| |__|  |__|  |_| \__\ |__|  \__/        
                                                                              
                      - O R C A' S   B I G   F R I E N D -                    
                                      &                                       
                       - I N T E G R A L  F E E D E R -                       
                                                                              
 v1 FN, 2020, v2 2021, v3 2022-2024                                           
------------------------------------------------------------------------------


----------------------
SHARK INTEGRAL PACKAGE
----------------------

Number of atoms                             ...     11
Number of basis functions                   ...    100
Number of shells                            ...     48
Maximum angular momentum                    ...      2
Integral batch strategy                     ... SHARK/LIBINT Hybrid
RI-J (if used) integral strategy            ... SPLIT-RIJ (Revised 2003 algorithm where possible)
Printlevel                                  ...      1
Contraction scheme used                     ... SEGMENTED contraction
Prescreening option                         ... SCHWARTZ
   Thresh                                   ... 2.500e-11
   Tcut                                     ... 2.500e-12
   Tpresel                                  ... 2.500e-12 
Coulomb Range Separation                    ... NOT USED
Exchange Range Separation                   ... NOT USED
Multipole approximations                    ... NOT USED
Finite Nucleus Model                        ... NOT USED
CABS basis                                  ... NOT available
Auxiliary Coulomb fitting basis             ... AVAILABLE
   # of basis functions in Aux-J            ...    311
   # of shells in Aux-J                     ...    105
   Maximum angular momentum in Aux-J        ...      4
Auxiliary J/K fitting basis                 ... NOT available
Auxiliary Correlation fitting basis         ... NOT available
Auxiliary 'external' fitting basis          ... NOT available

Checking pre-screening integrals            ... done (  0.0 sec) Dimension = 48
   => SHARK Basis and OBASIS are compatible. Storing Pre-screening
Shell pair information
Shell pair cut-off parameter TPreSel        ...   2.5e-12
Total number of shell pairs                 ...      1176
Shell pairs after pre-screening             ...      1171
Total number of primitive shell pairs       ...      4178
Primitive shell pairs kept                  ...      3387
          la=0 lb=0:    373 shell pairs
          la=1 lb=0:    432 shell pairs
          la=1 lb=1:    136 shell pairs
          la=2 lb=0:    135 shell pairs
          la=2 lb=1:     80 shell pairs
          la=2 lb=2:     15 shell pairs

Checking whether 4 symmetric matrices of dimension 100 fit in memory
:Max Core in MB      =   4096.00
 MB in use           =      4.80
 MB left             =   4091.20
 MB needed           =      0.15
 Data fit in memory  = YES
Calculating RI/J V-Matrix + Cholesky decomp.... done (  0.0 sec)
Calculating Nuclear repulsion               ... done (  0.0 sec) ENN=    157.595203658065 Eh

Diagonalization of the overlap matrix:
Smallest eigenvalue                        ... 8.942e-04
Time for diagonalization                   ...    0.000 sec
Threshold for overlap eigenvalues          ... 1.000e-07
Number of eigenvalues below threshold      ... 0
Time for construction of square roots      ...    0.000 sec
Total time needed                          ...    0.001 sec

-------------------
DFT GRID GENERATION
-------------------

General Integration Accuracy     IntAcc      ... 4.388
Radial Grid Type                 RadialGrid  ... OptM3 with GC (2021)
Angular Grid (max. ang.)         AngularGrid ... 4 (Lebedev-302)
Angular grid pruning method      GridPruning ... 4 (adaptive)
Weight generation scheme         WeightScheme... mBecke (2022)
Basis function cutoff            BFCut       ... 1.0000e-11
Integration weight cutoff        WCut        ... 1.0000e-14
Partially contracted basis set               ... off
Rotationally invariant grid construction     ... off
Angular grids for H and He will be reduced by one unit

Total number of grid points                  ...    49561
Total number of batches                      ...      781
Average number of points per batch           ...       63
Average number of grid points per atom       ...     4506

--------------------
COSX GRID GENERATION
--------------------

GRIDX 1
-------
General Integration Accuracy     IntAcc      ... 3.816
Radial Grid Type                 RadialGrid  ... OptM3 with GC (2021)
Angular Grid (max. ang.)         AngularGrid ... 1 (Lebedev-50)
Angular grid pruning method      GridPruning ... 4 (adaptive)
Weight generation scheme         WeightScheme... mBecke (2022)
Basis function cutoff            BFCut       ... 1.0000e-11
Integration weight cutoff        WCut        ... 1.0000e-14
Partially contracted basis set               ... on
Rotationally invariant grid construction     ... off
Angular grids for H and He will be reduced by one unit

Total number of grid points                  ...     6366
Total number of batches                      ...       55
Average number of points per batch           ...      115
Average number of grid points per atom       ...      579
UseSFitting                                  ... on

GRIDX 2
-------
General Integration Accuracy     IntAcc      ... 4.020
Radial Grid Type                 RadialGrid  ... OptM3 with GC (2021)
Angular Grid (max. ang.)         AngularGrid ... 2 (Lebedev-110)
Angular grid pruning method      GridPruning ... 4 (adaptive)
Weight generation scheme         WeightScheme... mBecke (2022)
Basis function cutoff            BFCut       ... 1.0000e-11
Integration weight cutoff        WCut        ... 1.0000e-14
Partially contracted basis set               ... on
Rotationally invariant grid construction     ... off
Angular grids for H and He will be reduced by one unit

Total number of grid points                  ...    13719
Total number of batches                      ...      111
Average number of points per batch           ...      123
Average number of grid points per atom       ...     1247
UseSFitting                                  ... on

GRIDX 3
-------
General Integration Accuracy     IntAcc      ... 4.338
Radial Grid Type                 RadialGrid  ... OptM3 with GC (2021)
Angular Grid (max. ang.)         AngularGrid ... 3 (Lebedev-194)
Angular grid pruning method      GridPruning ... 4 (adaptive)
Weight generation scheme         WeightScheme... mBecke (2022)
Basis function cutoff            BFCut       ... 1.0000e-11
Integration weight cutoff        WCut        ... 1.0000e-14
Partially contracted basis set               ... on
Rotationally invariant grid construction     ... off
Angular grids for H and He will be reduced by one unit

Total number of grid points                  ...    30150
Total number of batches                      ...      240
Average number of points per batch           ...      125
Average number of grid points per atom       ...     2741
UseSFitting                                  ... on
Grids setup in   0.2 sec
Initializing property integral containers    ... done (  0.0 sec)

SHARK setup successfully completed in   0.3 seconds

Maximum memory used throughout the entire STARTUP-calculation: 20.1 MB
-------------------------------------------------------------------------------
                                 ORCA GUESS
                   Start orbitals & Density for SCF / CASSCF
-------------------------------------------------------------------------------

------------
SCF SETTINGS
------------
Hamiltonian:
 Density Functional     Method          .... DFT(GTOs)
 Exchange Functional    Exchange        .... B88
   X-Alpha parameter    XAlpha          ....  0.666667
   Becke's b parameter  XBeta           ....  0.004200
 Correlation Functional Correlation     .... LYP
 LDA part of GGA corr.  LDAOpt          .... VWN-5
 Gradients option       PostSCFGGA      .... off
 Hybrid DFT is turned on
   Fraction HF Exchange ScalHFX         ....  0.200000
   Scaling of DF-GGA-X  ScalDFX         ....  0.720000
   Scaling of DF-GGA-C  ScalDFC         ....  0.810000
   Scaling of DF-LDA-C  ScalLDAC        ....  1.000000
   Perturbative correction              ....  0.000000
   NL short-range parameter             ....  4.800000
 RI-approximation to the Coulomb term is turned on
   Number of AuxJ basis functions       .... 311
   RIJ-COSX (HFX calculated with COS-X)).... on


General Settings:
 Integral files         IntName         .... cyklopentadien
 Hartree-Fock type      HFTyp           .... RHF
 Total Charge           Charge          ....    0
 Multiplicity           Mult            ....    1
 Number of Electrons    NEL             ....   36
 Basis Dimension        Dim             ....  100
 Nuclear Repulsion      ENuc            ....    157.5952036581 Eh

Convergence Acceleration:
 AO-DIIS                CNVDIIS         .... on
   Start iteration      DIISMaxIt       ....    12
   Startup error        DIISStart       ....  0.200000
   # of expansion vecs  DIISMaxEq       ....     5
   Bias factor          DIISBfac        ....   1.050
   Max. coefficient     DIISMaxC        ....  10.000
 MO-DIIS                CNVKDIIS        .... off
 Trust-Rad. Augm. Hess. CNVTRAH         .... auto
   Auto Start mean grad. ratio tolernc. ....  1.125000
   Auto Start start iteration           ....    50
   Auto Start num. interpolation iter.  ....    10
   Max. Number of Micro iterations      ....    24
   Max. Number of Macro iterations      .... Maxiter - #DIIS iter
   Number of Davidson start vectors     ....     2
   Converg. threshold    (grad. norm)   ....   1.000e-05
   Grad. Scal. Fac. for Micro threshold ....   0.100
   Minimum threshold for Micro iter.    ....   1.000e-02
   NR start threshold (gradient norm)   ....   1.000e-04
   Initial trust radius                 ....   0.400
   Minimum AH scaling param. (alpha)    ....   1.000
   Maximum AH scaling param. (alpha)    .... 1000.000
   Quad. conv. algorithm                .... NR
   White noise on init. David. guess    .... on
   Maximum white noise                  ....   0.010
   Pseudo random numbers                .... off
   Inactive MOs                         .... canonical
   Orbital update algorithm             .... Taylor
   Preconditioner                       .... Diag
   Full preconditioner red. dimension   ....   250
 SOSCF                 CNVSOSCF           .... on
   Start iteration     SOSCFMaxIt         ....   150
   Startup grad/error  SOSCFStart         ....  0.003300
   Hessian update      SOSCFHessUp        .... L-BFGS
   Autom. constraints  SOSCFAutoConstrain .... off
 Level Shifting         CNVShift        .... on
   Level shift para.    LevelShift      ....    0.2500
   Turn off err/grad.   ShiftErr        ....    0.0010
 Zerner damping         CNVZerner       .... off
 Static damping         CNVDamp         .... on
   Fraction old density DampFac         ....    0.7000
   Max. Damping (<1)    DampMax         ....    0.9800
   Min. Damping (>=0)   DampMin         ....    0.0000
   Turn off err/grad.   DampErr         ....    0.1000

SCF Procedure:
 Maximum # iterations   MaxIter         ....   125
 SCF integral mode      SCFMode         .... Direct
   Integral package                     .... SHARK and LIBINT hybrid scheme
 Reset frequency        DirectResetFreq ....    20
 Integral Threshold     Thresh          ....  2.500e-11 Eh
 Primitive CutOff       TCut            ....  2.500e-12 Eh

Convergence Tolerance:
 Convergence Check Mode ConvCheckMode   .... Total+1el-Energy
 Convergence forced     ConvForced      .... 0
 Energy Change          TolE            ....  1.000e-08 Eh
 1-El. energy change                    ....  1.000e-05 Eh
 Orbital Gradient       TolG            ....  1.000e-05
 Orbital Rotation angle TolX            ....  1.000e-05
 DIIS Error             TolErr          ....  5.000e-07

------------------------------
INITIAL GUESS: MODEL POTENTIAL
------------------------------
Loading Hartree-Fock densities                     ... done
Calculating cut-offs                               ... done
Initializing the effective Hamiltonian             ... done
Setting up the integral package (SHARK)            ... done
Starting the Coulomb interaction                   ... done (   0.0 sec)
Making the grid                                    ... done (   0.0 sec)
Mapping shells                                     ... done
Starting the XC term evaluation                    ... done (   0.0 sec)
  promolecular density results
     # of electrons  =     35.996475823
     EX              =    -27.477614116
     EC              =     -1.170928630
     EX+EC           =    -28.648542746
Transforming the Hamiltonian                       ... done (   0.0 sec)
Diagonalizing the Hamiltonian                      ... done (   0.0 sec)
Back transforming the eigenvectors                 ... done (   0.0 sec)
Now organizing SCF variables                       ... done
                      ------------------
                      INITIAL GUESS DONE (   0.1 sec)
                      ------------------
----------------------
INITIAL GUESS ORBITALS
----------------------
                      0         1         2         3         4         5   
                 -10.10680 -10.10658 -10.10155 -10.09417 -10.09415  -0.92730
                   2.00000   2.00000   2.00000   2.00000   2.00000   2.00000
                  --------  --------  --------  --------  --------  --------
  0C   1s        -0.668118 -0.727239 -0.002898  0.003020  0.007318  0.144984
  0C   2s        -0.031033 -0.040415 -0.000456  0.002008  0.004367 -0.291973
  0C   3s         0.016052  0.037296 -0.002261 -0.009865 -0.013984 -0.027622
  0C   1pz       -0.000082 -0.000036 -0.000009  0.000259  0.000569 -0.021117
  0C   1px        0.000904 -0.000532  0.000029 -0.001088 -0.002590  0.060339
  0C   1py        0.001680 -0.002103 -0.000036  0.000112 -0.000374 -0.095729
  0C   2pz        0.000791  0.000853 -0.000005  0.000605 -0.000485 -0.001470
  0C   2px       -0.002463 -0.002826  0.000257 -0.003010  0.001885  0.004046
  0C   2py        0.002948  0.002670  0.000720 -0.001181 -0.000679 -0.007745
  0C   1dz2       0.000773  0.002805 -0.000168 -0.000647 -0.001018  0.011540
  0C   1dxz       0.000574  0.000905 -0.000065 -0.000400 -0.000757  0.004415
  0C   1dyz      -0.000316 -0.000587  0.000061  0.000120  0.000081 -0.002353
  0C   1dx2y2    -0.000642  0.001326 -0.000076  0.000429  0.001296  0.002770
  0C   1dxy       0.001094  0.000442 -0.000140 -0.000259 -0.000142  0.002414
  1C   1s        -0.006434 -0.006401 -0.001346 -0.431950 -0.888206  0.123360
  1C   2s         0.002704  0.002771 -0.002448 -0.022330 -0.044905 -0.247652
  1C   3s        -0.010601 -0.011818  0.021878  0.014314  0.034813 -0.062168
  1C   1pz       -0.000402 -0.000534 -0.000295  0.000104  0.000182  0.010897
  1C   1px        0.001736  0.002262  0.000765 -0.000348 -0.000606 -0.070508
  1C   1py       -0.000028 -0.000163 -0.001584  0.000307  0.000556 -0.071068
  1C   2pz       -0.000130  0.000485  0.000977 -0.000271 -0.000465  0.000657
  1C   2px       -0.000732 -0.001440 -0.002059  0.002200  0.003348 -0.013312
  1C   2py       -0.003950  0.002034  0.006674  0.003130  0.004082 -0.031909
  1C   1dz2      -0.000692 -0.000947  0.000857  0.000980  0.002126  0.010802
  1C   1dxz      -0.000495 -0.000593  0.000152  0.000388  0.000753  0.004282
  1C   1dyz       0.000011 -0.000063 -0.000406 -0.000034  0.000024 -0.000273
  1C   1dx2y2     0.000867  0.000977  0.001173 -0.000037  0.000126 -0.000569
  1C   1dxy       0.000099  0.000533  0.000872 -0.000429 -0.001410 -0.005119
  2C   1s        -0.004021 -0.000181  0.987232  0.001009 -0.002913  0.111290
  2C   2s        -0.000522 -0.000023  0.055851 -0.000736  0.002130 -0.228942
  2C   3s         0.009581  0.000411 -0.068175  0.003091 -0.008954  0.016571
  2C   1pz        0.000026  0.000001  0.000137  0.000154 -0.000449  0.019714
  2C   1px       -0.000106  0.000083 -0.000543 -0.001290  0.001525 -0.077368
  2C   1py        0.000022  0.000270  0.000177 -0.001893 -0.001296  0.025201
  2C   2pz       -0.000231 -0.000010  0.002307 -0.000336  0.000977  0.000548
  2C   2px        0.000931 -0.000357 -0.009046  0.001710 -0.003703 -0.001578
  2C   2py       -0.000245 -0.001229  0.002946  0.000749  0.001658  0.000430
  2C   1dz2       0.000032  0.000001  0.000985  0.000412 -0.001191  0.006603
  2C   1dxz       0.000109 -0.000002  0.000201  0.000306 -0.000393  0.003878
  2C   1dyz      -0.000034 -0.000024 -0.000064  0.000419  0.000308 -0.001268
  2C   1dx2y2    -0.000316  0.000043  0.000716 -0.001132 -0.000611 -0.003532
  2C   1dxy       0.000225  0.000088 -0.000522 -0.001696 -0.000426  0.002577
  3C   1s        -0.006960  0.005825 -0.001350  0.888199 -0.431965  0.123356
  3C   2s         0.002932 -0.002529 -0.002448  0.045291 -0.021535 -0.247648
  3C   3s        -0.011574  0.010865  0.021876 -0.032755  0.018549 -0.061877
  3C   1pz       -0.000447  0.000498 -0.000295 -0.000193  0.000079  0.010964
  3C   1px        0.001580 -0.001796  0.001551  0.000868 -0.000358 -0.015139
  3C   1py       -0.001099  0.001111  0.000829  0.000091 -0.000047  0.098940
  3C   2pz       -0.000085 -0.000493  0.000973  0.000505 -0.000200  0.000737
  3C   2px        0.001528  0.002501 -0.005596 -0.000137  0.000280  0.007955
  3C   2py        0.003542  0.001103 -0.004179  0.006264 -0.001785  0.033536
  3C   1dz2      -0.000771  0.000884  0.000857 -0.002083  0.001068  0.010783
  3C   1dxz      -0.000443  0.000406  0.000361 -0.000628  0.000261  0.003622
  3C   1dyz       0.000317 -0.000375  0.000237  0.000448 -0.000242 -0.002326
  3C   1dx2y2     0.000153  0.000222 -0.000471 -0.001165  0.000841  0.004671
  3C   1dxy      -0.000946  0.001016 -0.001384 -0.000321  0.000142  0.002110
  4C   1s        -0.728035  0.667252 -0.002887 -0.006895  0.003891  0.145006
  4C   2s        -0.034383  0.037603 -0.000455 -0.004276  0.002195 -0.292048
  4C   3s         0.019186 -0.035781 -0.002258  0.016398 -0.004915 -0.027826
  4C   1pz       -0.000085  0.000027 -0.000009 -0.000556  0.000288 -0.021093
  4C   1px       -0.000188 -0.000828  0.000044  0.001899 -0.000889  0.105159
  4C   1py       -0.001711 -0.002167  0.000012 -0.001561  0.001098  0.041832
  4C   2pz        0.000858 -0.000781 -0.000005 -0.000177 -0.000756 -0.001553
  4C   2px       -0.004043  0.003523 -0.000218  0.000177  0.002588  0.007963
  4C   2py       -0.000972  0.000412 -0.000733 -0.001799 -0.002124  0.003955
  4C   1dz2       0.001010 -0.002728 -0.000168  0.001137 -0.000401  0.011547
  4C   1dxz       0.000741 -0.001017 -0.000088  0.000717 -0.000276  0.004994
  4C   1dyz      -0.000088  0.000055 -0.000011 -0.000345  0.000213 -0.000697
  4C   1dx2y2    -0.001234 -0.000091  0.000110 -0.000626  0.000185 -0.001481
  4C   1dxy       0.000156  0.001416  0.000115  0.000993 -0.000733 -0.003397
  5H   1s         0.004037  0.004285  0.000166  0.000333 -0.000178 -0.036769
  5H   2s        -0.003043 -0.006313  0.000583  0.001573  0.001436 -0.005984
  5H   1pz        0.000390  0.000519 -0.000000 -0.000118 -0.000119 -0.001335
  5H   1px       -0.001254 -0.001444 -0.000021  0.000488  0.000442  0.003919
  5H   1py        0.001345  0.002468 -0.000071 -0.000070 -0.000230 -0.005723
  6H   1s        -0.000496  0.000322 -0.000171  0.002961  0.005294 -0.032722
  6H   2s         0.000190  0.001857 -0.001489 -0.002273 -0.005701 -0.011117
  6H   1pz        0.000095  0.000054 -0.000054 -0.000074 -0.000178  0.000539
  6H   1px       -0.000423 -0.000343  0.000249  0.000714  0.001642 -0.003635
  6H   1py       -0.000030 -0.000336  0.000049  0.001201  0.002658 -0.003917
  7H   1s        -0.000136 -0.000006 -0.002893  0.000049 -0.000142 -0.039317
  7H   2s        -0.000805 -0.000035  0.009510  0.000749 -0.002167 -0.006236
  7H   1pz       -0.000091 -0.000004 -0.002459  0.000030 -0.000085 -0.004016
  7H   1px        0.000150  0.000032 -0.001798  0.000361 -0.000443 -0.005414
  7H   1py       -0.000053  0.000077  0.000587  0.000513  0.000362  0.001770
  8H   1s        -0.000137 -0.000006 -0.002894  0.000049 -0.000142 -0.039355
  8H   2s        -0.000805 -0.000035  0.009509  0.000748 -0.002165 -0.006443
  8H   1pz        0.000008  0.000000  0.003051 -0.000110  0.000320  0.006184
  8H   1px        0.000173  0.000033 -0.000530  0.000328 -0.000350 -0.003091
  8H   1py       -0.000060  0.000077  0.000171  0.000523  0.000332  0.001008
  9H   1s        -0.000466 -0.000363 -0.000172 -0.005598  0.002337 -0.032735
  9H   2s         0.000348 -0.001834 -0.001490  0.005308 -0.003082 -0.011135
  9H   1pz        0.000100 -0.000046 -0.000054  0.000170 -0.000095  0.000542
  9H   1px       -0.000330  0.000052  0.000172  0.000250 -0.000107 -0.000623
  9H   1py        0.000313 -0.000448 -0.000186  0.003017 -0.001591  0.005320
 10H   1s         0.004389 -0.003923  0.000166 -0.000151 -0.000346 -0.036765
 10H   2s        -0.003572  0.006028  0.000584 -0.002124  0.000158 -0.006025
 10H   1pz        0.000432 -0.000482 -0.000000  0.000166 -0.000021 -0.001332
 10H   1px       -0.002023  0.002456  0.000024 -0.000647  0.000119  0.006516
 10H   1py       -0.000445  0.001110  0.000070  0.000227  0.000084  0.002309
                      6         7         8         9        10        11   
                  -0.77074  -0.75953  -0.62499  -0.59098  -0.58748  -0.50615
                   2.00000   2.00000   2.00000   2.00000   2.00000   2.00000
                  --------  --------  --------  --------  --------  --------
  0C   1s        -0.132890 -0.118256 -0.052857 -0.115043 -0.031288 -0.000038
  0C   2s         0.282136  0.252287  0.116742  0.259548  0.064073  0.000162
  0C   3s         0.054575  0.009147  0.009176  0.197902  0.047654 -0.001068
  0C   1pz       -0.006715  0.022464 -0.046178 -0.012083 -0.046022  0.109409
  0C   1px        0.053050 -0.121520  0.239459  0.009204  0.126087  0.024984
  0C   1py        0.073144 -0.073512  0.119855 -0.131871 -0.225421 -0.008124
  0C   2pz        0.000192  0.003887 -0.010822  0.013489 -0.011527  0.034240
  0C   2px        0.007703 -0.027464  0.057968 -0.042610  0.033454  0.008175
  0C   2py        0.026006 -0.032084  0.033121  0.049060 -0.051143 -0.003116
  0C   1dz2      -0.006069 -0.003955 -0.001074 -0.001502  0.000599  0.003153
  0C   1dxz      -0.000311 -0.004999  0.002222 -0.001219 -0.000032 -0.005380
  0C   1dyz      -0.000047 -0.000382 -0.000090  0.001537 -0.003277  0.006198
  0C   1dx2y2    -0.007249  0.013666 -0.009683  0.000376  0.005273 -0.000870
  0C   1dxy       0.006041 -0.000278  0.004039 -0.005879  0.012046  0.001894
  1C   1s         0.051756 -0.168587  0.112912  0.088906 -0.034743  0.000014
  1C   2s        -0.108043  0.357321 -0.253673 -0.198394  0.073202 -0.000044
  1C   3s        -0.089611  0.074807  0.002007 -0.135853  0.051282  0.000409
  1C   1pz       -0.030809 -0.019879  0.025697 -0.048761  0.009958  0.164063
  1C   1px        0.107078  0.078626 -0.073067  0.202258 -0.107940  0.038006
  1C   1py       -0.081301 -0.023219  0.117053 -0.028281 -0.198367 -0.012355
  1C   2pz       -0.010806 -0.004223  0.006606 -0.007380  0.001836  0.070251
  1C   2px        0.026475  0.020227 -0.017740  0.011618 -0.027914  0.016373
  1C   2py       -0.062478  0.005714  0.034063 -0.062008 -0.061072 -0.005216
  1C   1dz2       0.002542 -0.007061  0.002640  0.001970  0.001737  0.001685
  1C   1dxz      -0.001281 -0.004914  0.001164 -0.001138 -0.001018  0.000520
  1C   1dyz      -0.002692  0.001164  0.000778 -0.000368  0.002450  0.013911
  1C   1dx2y2     0.011962  0.007016 -0.001768  0.007494  0.002945  0.001149
  1C   1dxy       0.006351 -0.002863 -0.004418 -0.001937 -0.012379  0.003209
  2C   1s         0.202806  0.000259 -0.117967 -0.000011 -0.021004  0.000025
  2C   2s        -0.448116 -0.000583  0.277383  0.000026  0.046432 -0.000133
  2C   3s         0.061444 -0.000017 -0.022953  0.000126  0.035442  0.001088
  2C   1pz        0.004698 -0.000033  0.026933  0.000056  0.040411  0.436621
  2C   1px       -0.018559 -0.034076 -0.105394  0.073905 -0.158055  0.100369
  2C   1py        0.006193 -0.104613  0.034318  0.227267  0.051296 -0.032857
  2C   2pz       -0.008145  0.000042  0.011956 -0.000033  0.012377  0.142868
  2C   2px        0.031747 -0.010007 -0.046244  0.018473 -0.047750  0.033556
  2C   2py       -0.010512 -0.030941  0.015235  0.056928  0.015615 -0.010470
  2C   1dz2       0.001852 -0.000000  0.005873  0.000005  0.004286  0.001250
  2C   1dxz      -0.000102  0.000827  0.002046 -0.000645  0.004706 -0.002645
  2C   1dyz       0.000022  0.002589 -0.000665 -0.002015 -0.001531  0.000877
  2C   1dx2y2     0.002947 -0.006615  0.001447  0.005168 -0.009505 -0.000584
  2C   1dxy      -0.002142 -0.009102 -0.001034  0.007120  0.006932  0.000445
  3C   1s         0.051322  0.168716  0.112911 -0.088973 -0.034602 -0.000021
  3C   2s        -0.107150 -0.357605 -0.253691  0.198586  0.072858  0.000215
  3C   3s        -0.089222 -0.074903  0.001668  0.135786  0.051385 -0.002244
  3C   1pz       -0.030813  0.019785  0.025598  0.048753  0.010079  0.164040
  3C   1px        0.134628 -0.076866 -0.128026 -0.180083  0.029800  0.037946
  3C   1py        0.002527  0.027519 -0.051575  0.096589  0.223775 -0.012431
  3C   2pz       -0.010666  0.004229  0.006642  0.007234  0.001835  0.070339
  3C   2px        0.057976 -0.012935 -0.034352 -0.045850  0.013726  0.016389
  3C   2py        0.034785  0.016555 -0.017023 -0.043159  0.065639 -0.004295
  3C   1dz2       0.002520  0.007063  0.002638 -0.001978  0.001714  0.001699
  3C   1dxz       0.000510  0.004657  0.000493  0.000728 -0.002245 -0.007745
  3C   1dyz       0.002942 -0.001967 -0.001337 -0.000961 -0.001380 -0.011557
  3C   1dx2y2    -0.002383 -0.004896  0.003646 -0.004131  0.012679 -0.002730
  3C   1dxy      -0.013340  0.005750  0.003024  0.006540  0.000981 -0.002041
  4C   1s        -0.133201  0.117919 -0.052861  0.114991 -0.031447 -0.000004
  4C   2s         0.282814 -0.251567  0.116758 -0.259448  0.064457  0.000041
  4C   3s         0.054483 -0.008963  0.009378 -0.197801  0.046847  0.001775
  4C   1pz       -0.006697 -0.022568 -0.046288  0.011892 -0.045945  0.109454
  4C   1px       -0.000322  0.054912  0.122994 -0.084878  0.234938  0.024916
  4C   1py       -0.090030 -0.131215 -0.237893 -0.101045  0.108072 -0.008271
  4C   2pz        0.000231 -0.003969 -0.010888 -0.013505 -0.011572  0.034447
  4C   2px       -0.009232  0.003357  0.027110  0.063454  0.057348  0.007140
  4C   2py       -0.025235 -0.042108 -0.060886  0.014589  0.021831 -0.002684
  4C   1dz2      -0.006073  0.003945 -0.001065  0.001499  0.000618  0.003122
  4C   1dxz      -0.000253  0.003845  0.001852  0.001907  0.001922 -0.008007
  4C   1dyz       0.000243 -0.003233 -0.001210  0.000544  0.002656 -0.001843
  4C   1dx2y2    -0.007947 -0.004483 -0.006802 -0.005732 -0.009848 -0.002053
  4C   1dxy       0.005022  0.012928  0.007979 -0.001458 -0.008720  0.000253
  5H   1s         0.076511  0.071593  0.072427  0.179859  0.174864 -0.000148
  5H   2s         0.011701  0.008617  0.015251  0.052112  0.019049 -0.000177
  5H   1pz        0.001715  0.002114  0.000602  0.002746  0.002572  0.002483
  5H   1px       -0.004579 -0.007123 -0.000009 -0.008799 -0.007957  0.000578
  5H   1py        0.008780  0.006328  0.007985  0.009604  0.009865 -0.000192
  6H   1s        -0.031355  0.103031 -0.130992 -0.140831  0.157785 -0.000091
  6H   2s        -0.008351  0.015019 -0.028393 -0.040888  0.010214 -0.000048
  6H   1pz       -0.000002 -0.001146  0.001116 -0.000208 -0.000832  0.002822
  6H   1px       -0.001101  0.008404 -0.007681 -0.002453  0.006972  0.000649
  6H   1py       -0.003384  0.010374 -0.008621 -0.010224  0.010184 -0.000224
  7H   1s        -0.123828 -0.000155  0.132556  0.000060  0.074798 -0.253555
  7H   2s        -0.020805  0.000017  0.024526 -0.000059  0.009456 -0.038805
  7H   1pz       -0.009512 -0.000010  0.009040 -0.000000  0.004919 -0.002669
  7H   1px       -0.011402 -0.000532  0.006696  0.001459  0.002734 -0.012801
  7H   1py        0.003734 -0.001589 -0.002196  0.004470 -0.000906  0.004169
  8H   1s        -0.123839 -0.000173  0.132584  0.000024  0.074897  0.253566
  8H   2s        -0.020855 -0.000060  0.024450  0.000056  0.009322  0.039047
  8H   1pz        0.013953  0.000019 -0.011261  0.000000 -0.005697 -0.008558
  8H   1px       -0.006009 -0.000535  0.002011  0.001470  0.000283  0.010195
  8H   1py        0.001970 -0.001594 -0.000673  0.004480 -0.000103 -0.003336
  9H   1s        -0.031122 -0.103113 -0.130993  0.141085  0.157594 -0.000036
  9H   2s        -0.008311 -0.015067 -0.028405  0.040952  0.010246 -0.000117
  9H   1pz       -0.000010  0.001162  0.001131  0.000200 -0.000847  0.002822
  9H   1px        0.001115 -0.000666 -0.001126 -0.004048 -0.000374  0.000643
  9H   1py        0.003358  0.013346  0.011494 -0.009724 -0.012312 -0.000207
 10H   1s         0.076700 -0.071395  0.072463 -0.179639  0.175187 -0.000162
 10H   2s         0.011762 -0.008647  0.015265 -0.052098  0.019123 -0.000048
 10H   1pz        0.001720 -0.002110  0.000604 -0.002747  0.002581  0.002482
 10H   1px       -0.008884  0.009451 -0.004703  0.012740 -0.012264  0.000598
 10H   1py       -0.004404  0.000908 -0.006442  0.002575 -0.003302 -0.000184
                     12        13        14        15        16        17   
                  -0.47297  -0.47293  -0.45860  -0.44813  -0.39288  -0.29900
                   2.00000   2.00000   2.00000   2.00000   2.00000   2.00000
                  --------  --------  --------  --------  --------  --------
  0C   1s        -0.008402 -0.003978 -0.024385  0.035300  0.000008  0.000009
  0C   2s         0.011168 -0.008788  0.075560 -0.081916 -0.000042 -0.000030
  0C   3s         0.029205  0.089901  0.022485 -0.266836 -0.000037 -0.000671
  0C   1pz        0.024382 -0.071579  0.048115  0.025090 -0.370084 -0.256767
  0C   1px       -0.203227  0.256542 -0.152262 -0.095320 -0.085255 -0.059154
  0C   1py       -0.298407 -0.165174  0.172692  0.041350  0.027963  0.019337
  0C   2pz        0.013264  0.006268  0.007922 -0.011154 -0.169668 -0.145973
  0C   2px       -0.069470 -0.027966 -0.035455  0.016265 -0.039437 -0.033618
  0C   2py       -0.035889 -0.002829 -0.003924 -0.097677  0.012934  0.010760
  0C   1dz2       0.000368 -0.001290  0.000543 -0.000587 -0.004476 -0.006555
  0C   1dxz      -0.002942  0.002522  0.002049  0.000569  0.004936  0.018455
  0C   1dyz       0.001517  0.002940 -0.001407 -0.003566 -0.017076  0.009277
  0C   1dx2y2     0.009413 -0.015238 -0.004924  0.001871 -0.000010  0.005156
  0C   1dxy      -0.009710 -0.007158  0.007256  0.015076 -0.004409  0.000603
  1C   1s         0.031578  0.033333  0.022546 -0.001020  0.000020  0.000008
  1C   2s        -0.063296 -0.096872 -0.063477 -0.010404 -0.000179 -0.000069
  1C   3s        -0.141949 -0.136051  0.067609  0.103761 -0.000097  0.000782
  1C   1pz       -0.053128  0.043801 -0.041916 -0.040702 -0.156162 -0.394269
  1C   1px        0.262414 -0.236434  0.120273  0.068024 -0.035972 -0.090842
  1C   1py        0.097631 -0.141644 -0.186707 -0.331636  0.011695  0.029720
  1C   2pz       -0.017531  0.011401 -0.001496 -0.022307 -0.061041 -0.229616
  1C   2px        0.055276 -0.063849  0.015982  0.083983 -0.014029 -0.052942
  1C   2py       -0.062989 -0.043713  0.030135 -0.040064  0.004748  0.017600
  1C   1dz2       0.001406 -0.000984  0.000829 -0.001002  0.007905  0.004750
  1C   1dxz      -0.002432  0.001470 -0.003093  0.001239 -0.018003 -0.011141
  1C   1dyz       0.002382  0.000953 -0.001580 -0.002751  0.001862 -0.000171
  1C   1dx2y2     0.007867 -0.008224  0.014858 -0.002316 -0.004223 -0.002736
  1C   1dxy      -0.013527 -0.000977  0.001676  0.013161  0.001935  0.000878
  2C   1s        -0.039547 -0.003703  0.005996 -0.000007  0.000040 -0.000020
  2C   2s         0.091357  0.008569 -0.024605  0.000040 -0.000248  0.000202
  2C   3s         0.218289  0.019685 -0.199680  0.000025  0.000655 -0.000970
  2C   1pz        0.017205  0.001809  0.102856  0.000165  0.209032  0.000022
  2C   1px       -0.067684 -0.007881 -0.404866  0.123376  0.047977  0.000080
  2C   1py        0.022315 -0.000451  0.132040  0.377619 -0.015752 -0.000028
  2C   2pz       -0.011372 -0.001026  0.047067 -0.000119  0.051255  0.000037
  2C   2px        0.046614 -0.010865 -0.184469  0.040583  0.012116 -0.000416
  2C   2py       -0.010439 -0.046160  0.060333  0.124747 -0.003671  0.000216
  2C   1dz2       0.005604  0.000548  0.011657  0.000003  0.006958  0.000010
  2C   1dxz      -0.000885 -0.000623  0.003295 -0.001096 -0.014832  0.006738
  2C   1dyz       0.000461 -0.001676 -0.001079 -0.003394  0.004838  0.020719
  2C   1dx2y2     0.010514  0.005370  0.005474  0.008724 -0.003246  0.003124
  2C   1dxy      -0.008502  0.005220 -0.003961  0.012008  0.002375  0.004266
  3C   1s         0.037206 -0.026838  0.022658  0.000970  0.000015 -0.000029
  3C   2s        -0.080171  0.083274 -0.063822  0.010574 -0.000033  0.000164
  3C   3s        -0.164887  0.107911  0.067324 -0.103799  0.000061 -0.000508
  3C   1pz       -0.044186 -0.053181 -0.041580  0.040491 -0.156272  0.394169
  3C   1px        0.131844  0.135084  0.206507 -0.250596 -0.035808  0.090719
  3C   1py       -0.182276 -0.292295  0.080601 -0.228110  0.011809 -0.029757
  3C   2pz       -0.015063 -0.014404 -0.001395  0.022385 -0.061167  0.229690
  3C   2px        0.075585  0.040306 -0.004939 -0.091573 -0.013632  0.052603
  3C   2py        0.031721 -0.068474 -0.033847  0.017145  0.004706 -0.017352
  3C   1dz2       0.001211  0.001251  0.000810  0.001005  0.007896 -0.004697
  3C   1dxz      -0.003203 -0.001275 -0.001576 -0.002617 -0.015663  0.008936
  3C   1dyz      -0.000804  0.001519  0.003112 -0.001535  0.009115 -0.006725
  3C   1dx2y2     0.014732  0.004421  0.002930  0.013218 -0.003146  0.001672
  3C   1dxy      -0.001774 -0.008629 -0.014631  0.001848  0.003422 -0.002290
  4C   1s        -0.008976  0.002293 -0.024427 -0.035277 -0.000000  0.000025
  4C   2s         0.009294  0.010855  0.075576  0.081867  0.000013 -0.000166
  4C   3s         0.045542 -0.082789  0.022920  0.266933 -0.000421  0.001007
  4C   1pz        0.010867  0.074990  0.047782 -0.025126 -0.370246  0.256790
  4C   1px        0.067908 -0.297864 -0.223717  0.101662 -0.085394  0.059230
  4C   1py        0.351345  0.084160 -0.050130 -0.022599  0.028018 -0.019366
  4C   2pz        0.014310 -0.003630  0.007905  0.011082 -0.169840  0.145990
  4C   2px       -0.038314  0.013976 -0.026362 -0.070700 -0.038651  0.033061
  4C   2py        0.072141 -0.005385  0.023796 -0.069341  0.012552 -0.011079
  4C   1dz2       0.000117  0.001327  0.000534  0.000579 -0.004421  0.006537
  4C   1dxz      -0.003152 -0.000933  0.002465 -0.002559  0.014046 -0.009444
  4C   1dyz      -0.000266  0.003878 -0.000069 -0.002562  0.010899  0.018357
  4C   1dx2y2     0.012318  0.000117 -0.008409  0.013804  0.004150 -0.000964
  4C   1dxy      -0.002785 -0.017508  0.002536  0.006399  0.001341  0.005073
  5H   1s         0.107894  0.241778 -0.162093 -0.135462 -0.000023 -0.000001
  5H   2s         0.045423  0.092745 -0.066009 -0.055580  0.000230  0.000045
  5H   1pz        0.002019  0.001553 -0.001192 -0.000972 -0.009539 -0.008293
  5H   1px       -0.008992 -0.003212  0.003432  0.002607 -0.002198 -0.001912
  5H   1py       -0.000685  0.010850 -0.005310 -0.004978  0.000721  0.000623
  6H   1s        -0.227586  0.153643  0.042887  0.208219  0.000022 -0.000041
  6H   2s        -0.079850  0.055794  0.021740  0.080979  0.000121 -0.000033
  6H   1pz       -0.000057  0.000250 -0.001478 -0.001594 -0.004545 -0.012673
  6H   1px       -0.003138  0.001185  0.006030  0.008622 -0.001043 -0.002920
  6H   1py       -0.010315  0.006907 -0.001196  0.005173  0.000354  0.000961
  7H   1s         0.075548  0.007380  0.195028 -0.000226 -0.171995 -0.000063
  7H   2s         0.017570  0.001725  0.060439 -0.000202 -0.071809 -0.000041
  7H   1pz        0.005874  0.000568  0.012725 -0.000015 -0.001673 -0.000009
  7H   1px        0.000835  0.000267  0.000980  0.003104 -0.006343 -0.001435
  7H   1py       -0.000336  0.000540 -0.000336  0.009541  0.002061 -0.004417
  8H   1s         0.075447  0.007396  0.194605 -0.000077  0.171974  0.000077
  8H   2s         0.017405  0.001749  0.060272  0.000088  0.071773  0.000066
  8H   1pz       -0.005623 -0.000546 -0.011773  0.000016 -0.004541  0.000006
  8H   1px       -0.001835  0.000010 -0.004701  0.003132  0.004876  0.001465
  8H   1py        0.000527  0.000618  0.001514  0.009541 -0.001607  0.004421
  9H   1s        -0.195108 -0.193024  0.043139 -0.208291 -0.000002  0.000039
  9H   2s        -0.068199 -0.069629  0.021986 -0.081080 -0.000046  0.000122
  9H   1pz        0.000002 -0.000254 -0.001484  0.001610 -0.004547  0.012667
  9H   1px        0.002904  0.003741  0.005565 -0.003925 -0.001053  0.002919
  9H   1py        0.008836  0.008046 -0.002577  0.009263  0.000346 -0.000957
 10H   1s         0.150910 -0.217986 -0.161205  0.135654 -0.000101  0.000060
 10H   2s         0.061825 -0.082793 -0.065564  0.055600 -0.000069  0.000170
 10H   1pz        0.002272 -0.001154 -0.001183  0.000973 -0.009536  0.008291
 10H   1px       -0.008406  0.007566  0.005860 -0.005033 -0.002213  0.001908
 10H   1py        0.004463  0.007849  0.002246 -0.002485  0.000737 -0.000632
                     18        19        20        21        22        23   
                  -0.17023  -0.06883  -0.00522   0.02311   0.04501   0.05151
                   0.00000   0.00000   0.00000   0.00000   0.00000   0.00000
                  --------  --------  --------  --------  --------  --------
  0C   1s         0.000006  0.000011 -0.050407  0.019555 -0.033555  0.000382
  0C   2s        -0.000015 -0.000032  0.151801 -0.024964  0.093318 -0.001164
  0C   3s        -0.000725 -0.000975  0.549763 -0.428758  0.537731 -0.003695
  0C   1pz       -0.254995  0.451225 -0.027795  0.038317 -0.032135 -0.022684
  0C   1px       -0.058793  0.103885  0.082266 -0.122661  0.095086 -0.006752
  0C   1py        0.019262 -0.034108 -0.112126  0.130497 -0.135418  0.002595
  0C   2pz       -0.206499  0.534803 -0.044549  0.080205 -0.086545 -0.051869
  0C   2px       -0.047906  0.123974  0.131718 -0.253206  0.291148 -0.014745
  0C   2py        0.015563 -0.041024 -0.189164  0.289875 -0.259093  0.007301
  0C   1dz2       0.007926 -0.003098  0.004024 -0.007301  0.001190  0.000313
  0C   1dxz      -0.023129  0.001632  0.001572 -0.001656  0.002331 -0.002973
  0C   1dyz      -0.013515 -0.017491 -0.007442  0.005888 -0.002246 -0.006911
  0C   1dx2y2    -0.006554 -0.000878  0.009731 -0.011837 -0.004023 -0.001239
  0C   1dxy      -0.001223 -0.004185  0.026538 -0.017119  0.010153 -0.001524
  1C   1s        -0.000004 -0.000045 -0.054171  0.011065 -0.046397 -0.001458
  1C   2s         0.000025  0.000147  0.172730  0.024337  0.130037  0.003787
  1C   3s        -0.000307  0.001844  0.215769 -0.630414  0.843269  0.019695
  1C   1pz        0.403063 -0.279340  0.007208  0.003534  0.015703  0.044967
  1C   1px        0.092928 -0.064293 -0.065611 -0.007197 -0.138137  0.007415
  1C   1py       -0.030402  0.021019 -0.105191  0.025288 -0.212358 -0.004260
  1C   2pz        0.339897 -0.342556  0.007565 -0.024105  0.038107  0.270085
  1C   2px        0.078464 -0.078871 -0.151024  0.046875 -0.312749  0.053392
  1C   2py       -0.025768  0.026209 -0.357369 -0.168895 -0.442794 -0.020454
  1C   1dz2       0.001357 -0.009772  0.002790 -0.012773  0.002129 -0.002432
  1C   1dxz      -0.003253  0.022083 -0.002924 -0.005109 -0.000457 -0.001232
  1C   1dyz       0.000207 -0.003107  0.004649 -0.000140  0.002561 -0.021912
  1C   1dx2y2    -0.000757  0.005112  0.008553  0.001479  0.001316 -0.001487
  1C   1dxy       0.000324 -0.002580 -0.024029  0.007939 -0.012365 -0.005062
  2C   1s        -0.000025 -0.000033 -0.072997 -0.105002 -0.000742  0.001348
  2C   2s         0.000165  0.000222  0.164853  0.228011  0.001771 -0.003146
  2C   3s         0.000484 -0.000527  1.302991  2.074867  0.008462 -0.022130
  2C   1pz       -0.066498 -0.000035  0.030174  0.059760  0.000872 -0.466030
  2C   1px       -0.015237  0.000042 -0.115888 -0.229826 -0.001045 -0.110781
  2C   1py        0.005058 -0.000020  0.037547  0.074976 -0.006296  0.035768
  2C   2pz       -0.011929  0.000138  0.025724  0.094453  0.002699 -1.169899
  2C   2px       -0.002587 -0.000430 -0.093976 -0.360564  0.029278 -0.277661
  2C   2py        0.000823  0.000471  0.030837  0.118824  0.087379  0.090288
  2C   1dz2      -0.014434  0.000003 -0.008156 -0.016626 -0.000006  0.009305
  2C   1dxz       0.030788  0.008271  0.001497 -0.006694 -0.000322 -0.020416
  2C   1dyz      -0.010026  0.025413 -0.000479  0.002230 -0.001122  0.006613
  2C   1dx2y2     0.006749  0.003834 -0.016210 -0.001002  0.002929 -0.004687
  2C   1dxy      -0.004914  0.005238  0.011845  0.000724  0.003840  0.003486
  3C   1s        -0.000070 -0.000082 -0.054368  0.011236  0.047967 -0.001342
  3C   2s         0.000443  0.000428  0.173164  0.023840 -0.133839  0.003088
  3C   3s        -0.000366 -0.000202  0.221107 -0.630310 -0.866425  0.020088
  3C   1pz        0.403222  0.279313  0.007076  0.003396 -0.016302  0.044869
  3C   1px        0.092859  0.064278  0.008789 -0.020741 -0.013187  0.008341
  3C   1py       -0.030499 -0.021143  0.123633 -0.015896 -0.255000 -0.002244
  3C   2pz        0.339913  0.342463  0.006865 -0.024388 -0.040015  0.269990
  3C   2px        0.078749  0.078997  0.091231  0.139330 -0.008656  0.054713
  3C   2py       -0.025289 -0.025600  0.375750  0.106941 -0.547666 -0.018401
  3C   1dz2       0.001418  0.009797  0.002751 -0.012772 -0.002274 -0.002369
  3C   1dxz      -0.002713 -0.019655 -0.005055 -0.004054  0.001766  0.011956
  3C   1dyz       0.001731  0.010477 -0.002059  0.003143  0.001702  0.018440
  3C   1dx2y2    -0.000538 -0.004027  0.025468 -0.007082 -0.012280  0.004275
  3C   1dxy       0.000647  0.004105 -0.000759 -0.003875 -0.002376  0.002915
  4C   1s         0.000016 -0.000037 -0.050213  0.019325  0.032851  0.000603
  4C   2s        -0.000081  0.000090  0.151611 -0.024627 -0.091509 -0.001747
  4C   3s         0.000413  0.001057  0.541754 -0.428782 -0.524096 -0.007664
  4C   1pz       -0.255024 -0.451256 -0.027274  0.038063  0.031811 -0.022490
  4C   1px       -0.058829 -0.103966  0.132463 -0.175508 -0.155392 -0.007846
  4C   1py        0.019286  0.034012  0.041967 -0.033068 -0.052765  0.001397
  4C   2pz       -0.206581 -0.534806 -0.044569  0.079093  0.086455 -0.051727
  4C   2px       -0.047401 -0.123432  0.218804 -0.371072 -0.384783 -0.017495
  4C   2py        0.015048  0.039987  0.072580 -0.084536 -0.032041  0.001387
  4C   1dz2       0.007969  0.003118  0.004045 -0.007296 -0.001216  0.000318
  4C   1dxz      -0.010759 -0.011660  0.005660 -0.004763 -0.003182  0.001653
  4C   1dyz       0.024545 -0.013171  0.005110 -0.003782 -0.000484  0.007336
  4C   1dx2y2    -0.000847 -0.003772 -0.022309  0.012660  0.010847  0.001153
  4C   1dxy       0.006617 -0.002106 -0.017411  0.016546 -0.000581  0.001626
  5H   1s        -0.000035 -0.000139 -0.132262  0.101711 -0.067941  0.001142
  5H   2s         0.000375 -0.000532 -0.751519  0.798048 -0.848255  0.008812
  5H   1pz       -0.010897  0.023133  0.001876 -0.001561  0.001380  0.000116
  5H   1px       -0.002510  0.005329 -0.005533  0.003812 -0.003623  0.000159
  5H   1py        0.000827 -0.001742  0.008449 -0.009251  0.007430 -0.000021
  6H   1s         0.000016 -0.000072 -0.112618  0.067879 -0.095740 -0.002364
  6H   2s         0.000042 -0.000477 -0.744802  0.175747 -1.246436 -0.018479
  6H   1pz        0.016557 -0.014411 -0.000404  0.000295 -0.000515  0.010016
  6H   1px        0.003815 -0.003317  0.004638 -0.002492  0.005526  0.002292
  6H   1py       -0.001257  0.001080  0.008743 -0.003375  0.010163 -0.000462
  7H   1s         0.190673 -0.000044 -0.092499 -0.119143  0.000097 -0.157786
  7H   2s         0.170321 -0.000245 -0.672680 -1.128783  0.000093 -1.460785
  7H   1pz        0.002496 -0.000008  0.006501  0.015769  0.000005  0.005897
  7H   1px       -0.000943 -0.002832  0.002754  0.000475 -0.000116  0.010243
  7H   1py        0.000311 -0.008699 -0.000913 -0.000158 -0.000392 -0.003324
  8H   1s        -0.190541 -0.000030 -0.092738 -0.119367 -0.000618  0.156204
  8H   2s        -0.170194 -0.000171 -0.677249 -1.135915 -0.006691  1.463931
  8H   1pz        0.001746  0.000008 -0.007121 -0.014288 -0.000057  0.010140
  8H   1px        0.001957  0.002851 -0.000392 -0.006437 -0.000100 -0.006700
  8H   1py       -0.000613  0.008699  0.000070  0.002038 -0.000407  0.002175
  9H   1s        -0.000017 -0.000017 -0.112449  0.068046  0.097877 -0.001973
  9H   2s        -0.000228 -0.000312 -0.745319  0.177209  1.266486 -0.013503
  9H   1pz        0.016567  0.014411 -0.000427  0.000300  0.000483  0.010014
  9H   1px        0.003802  0.003306 -0.001480 -0.000075  0.001670  0.002117
  9H   1py       -0.001242 -0.001074 -0.009792  0.004179  0.011651 -0.000927
 10H   1s        -0.000092 -0.000046 -0.132097  0.101356  0.067265  0.001589
 10H   2s         0.000045 -0.000262 -0.747649  0.792279  0.835412  0.013783
 10H   1pz       -0.010893 -0.023122  0.001938 -0.001575 -0.001383  0.000109
 10H   1px       -0.002514 -0.005326 -0.009495  0.008525  0.007240  0.000189
 10H   1py        0.000844  0.001747 -0.003529  0.005236  0.003974 -0.000052
                     24        25        26        27        28        29   
                   0.05334   0.05495   0.07525   0.08736   0.19209   0.22750
                   0.00000   0.00000   0.00000   0.00000   0.00000   0.00000
                  --------  --------  --------  --------  --------  --------
  0C   1s         0.038010  0.046236  0.112092  0.065159  0.052934 -0.100507
  0C   2s        -0.112886 -0.113222 -0.306843 -0.195353 -0.145030  0.302601
  0C   3s        -0.452568 -0.231014 -1.484596 -1.244988 -1.868642  4.986562
  0C   1pz        0.027935 -0.001390  0.031511 -0.029057 -0.027847  0.037184
  0C   1px       -0.090211  0.064185 -0.157323  0.157444  0.082883 -0.075026
  0C   1py        0.088986  0.178699 -0.062113  0.093531 -0.119184  0.263483
  0C   2pz        0.054068  0.011048  0.139557 -0.080792 -0.311578  0.295011
  0C   2px       -0.134352  0.149847 -0.641220  0.482692  1.350727 -0.432840
  0C   2py        0.297619  0.601646 -0.106937  0.405732 -0.001557  2.590508
  0C   1dz2       0.000939 -0.000472 -0.011824 -0.006998 -0.007118  0.007735
  0C   1dxz      -0.000841 -0.005121  0.001244 -0.006507 -0.016955 -0.004584
  0C   1dyz       0.002432  0.004194 -0.003196 -0.006504 -0.002971 -0.000154
  0C   1dx2y2     0.001541  0.012796 -0.016863  0.023283  0.057130  0.028222
  0C   1dxy      -0.010903 -0.021578  0.025971  0.025037 -0.000309 -0.012670
  1C   1s        -0.090856 -0.120615  0.005562 -0.016999 -0.102239  0.046008
  1C   2s         0.215564  0.335383 -0.035421  0.047438  0.327027 -0.095147
  1C   3s         1.297047  1.473918 -0.289026 -0.005785  3.325529 -2.262324
  1C   1pz        0.030332  0.031882 -0.023654 -0.067473 -0.051250 -0.039809
  1C   1px       -0.145997 -0.088545  0.029656  0.215351  0.268557  0.101568
  1C   1py       -0.034000  0.151675 -0.222444 -0.233722  0.136860 -0.215429
  1C   2pz        0.096153  0.058924 -0.061604 -0.266441 -0.119889  0.171464
  1C   2px       -0.448024 -0.194479  0.061062  0.793759  0.971284 -1.046312
  1C   2py       -0.041165  0.190231 -0.634490 -1.115835  1.379958 -0.933925
  1C   1dz2       0.010806  0.009814 -0.002791  0.004027  0.001371 -0.002270
  1C   1dxz      -0.000499  0.008289 -0.002143  0.010258  0.000667 -0.005164
  1C   1dyz      -0.002863 -0.006655  0.007350  0.002904 -0.001874 -0.008072
  1C   1dx2y2     0.021352 -0.008188 -0.005813 -0.036533  0.002063  0.026877
  1C   1dxy       0.000892  0.025229 -0.028028 -0.003743  0.006559  0.027626
  2C   1s         0.110365  0.001630 -0.000166 -0.070096  0.048582  0.000119
  2C   2s        -0.269439 -0.004341  0.000718  0.113472 -0.010443 -0.000322
  2C   3s        -1.534331 -0.018654 -0.002278  2.580138 -3.210759 -0.001782
  2C   1pz        0.043971  0.000127 -0.000081 -0.051920  0.053031  0.000544
  2C   1px       -0.145288  0.114218 -0.082384  0.200383 -0.206742  0.020934
  2C   1py        0.041071  0.356980 -0.254075 -0.065925  0.067286  0.065055
  2C   2pz        0.090473  0.001182 -0.000364 -0.267926  0.454706 -0.001697
  2C   2px       -0.290303  0.331068 -0.218218  1.046828 -1.787302 -0.316723
  2C   2py        0.076395  1.024701 -0.665287 -0.342755  0.581918 -0.964560
  2C   1dz2      -0.010016 -0.000079  0.000000  0.031946 -0.020928 -0.000067
  2C   1dxz       0.000836  0.003363 -0.001596  0.005936 -0.013512 -0.003821
  2C   1dyz      -0.000471  0.010321 -0.004942 -0.001977  0.004408 -0.011667
  2C   1dx2y2    -0.015209 -0.026537  0.012589  0.024793  0.015416  0.029805
  2C   1dxy       0.011971 -0.035878  0.017226 -0.017960 -0.011293  0.040920
  3C   1s        -0.093628  0.117795 -0.005316 -0.017047 -0.102201 -0.045917
  3C   2s         0.223534 -0.328820  0.034993  0.047438  0.327271  0.093589
  3C   3s         1.326894 -1.434870  0.288656 -0.002769  3.315197  2.270237
  3C   1pz        0.031037 -0.030908  0.023308 -0.067035 -0.052067  0.040004
  3C   1px       -0.103503  0.158732 -0.154756  0.310934  0.136886 -0.209629
  3C   1py        0.106736  0.074061 -0.162872  0.060314 -0.268094 -0.115537
  3C   2pz        0.097953 -0.056587  0.061385 -0.266151 -0.118945 -0.171871
  3C   2px       -0.348815  0.262508 -0.423847  1.297830 -0.032714  0.296085
  3C   2py        0.285248  0.049660 -0.480817  0.430674 -1.683505 -1.371277
  3C   1dz2       0.011021 -0.009444  0.002757  0.004036  0.001382  0.002446
  3C   1dxz       0.001643 -0.010506  0.005981  0.006654  0.001606 -0.000526
  3C   1dyz       0.002676 -0.000441  0.004659 -0.008362  0.001113 -0.009598
  3C   1dx2y2     0.004600  0.026769 -0.024848 -0.007769 -0.005562  0.018218
  3C   1dxy      -0.020657 -0.000636 -0.014043  0.035908 -0.003992  0.034026
  4C   1s         0.039375 -0.045132 -0.112486  0.065298  0.052940  0.100794
  4C   2s        -0.116386  0.109898  0.308222 -0.195694 -0.145211 -0.304999
  4C   3s        -0.459004  0.216804  1.486528 -1.251635 -1.854900 -4.985753
  4C   1pz        0.028335  0.002074 -0.031837 -0.028817 -0.027250 -0.037050
  4C   1px       -0.128840  0.050518  0.091830  0.071502  0.136631  0.216385
  4C   1py       -0.025464  0.181444 -0.142104 -0.169204  0.047880  0.168980
  4C   2pz        0.054920 -0.009443 -0.140385 -0.081792 -0.310601 -0.293894
  4C   2px       -0.294642  0.226296  0.457787  0.152543  1.084533  1.877169
  4C   2py       -0.179987  0.568262 -0.463394 -0.611298 -0.794074  1.837731
  4C   1dz2       0.000921  0.000551  0.011861 -0.006969 -0.007212 -0.007555
  4C   1dxz      -0.002348  0.006553 -0.002886 -0.001452 -0.011905  0.003747
  4C   1dyz      -0.001502  0.000397 -0.001877  0.009134  0.012392 -0.002735
  4C   1dx2y2     0.011853 -0.024278  0.029800 -0.016527  0.017760 -0.020812
  4C   1dxy       0.001689  0.005460 -0.008177 -0.029860 -0.054310  0.022768
  5H   1s         0.083387  0.137310  0.047051 -0.073812 -0.048227  0.008667
  5H   2s         0.744219  0.756365  1.094041  0.487466 -0.222023  0.710718
  5H   1pz       -0.002385 -0.003258  0.000129 -0.001454 -0.004154 -0.004454
  5H   1px        0.009715  0.013368 -0.005592  0.008575  0.026785  0.022008
[...]
 2 C  dyz             0.6       0.0       1.1       0.1       0.1       0.1
 2 C  dx2y2           3.7       0.5       7.0       0.4       7.2       1.4
 2 C  dxy             6.9       0.3      13.3       0.8       3.8       0.8
 3 C  s               0.3       1.0       2.7       3.1       2.2       0.5
 3 C  px              1.1       0.3       0.1       0.0       0.3       1.0
 3 C  py              0.6       0.5       1.6       3.4       0.0       0.8
 3 C  dz2             1.1       0.1       3.6       3.9       3.6       0.1
 3 C  dxz             0.9       0.0       1.0       0.0       0.9       0.5
 3 C  dyz             0.3       0.2       0.1       0.1       0.0       1.2
 3 C  dx2y2           1.4       1.1       2.0       5.6       0.4       0.3
 3 C  dxy             4.5       1.6       3.2       0.4       0.0      21.6
 4 C  s               5.5       2.1       2.0       0.5       0.1       3.0
 4 C  pz              0.0       0.3       0.0       0.0       0.0       0.1
 4 C  px              0.3       6.1       0.4       1.2       0.0       0.9
 4 C  py              0.3       0.3       0.5       0.4       0.2       0.5
 4 C  dz2            11.8       1.2       4.8       0.2       0.5       0.8
 4 C  dxz             0.3       0.4       1.5       0.2       0.1       1.0
 4 C  dyz             0.2       0.2       0.9       0.1       0.0       0.2
 4 C  dx2y2          10.8       2.0       0.1       2.1       0.0       3.6
 4 C  dxy             1.2       3.6       7.8       1.7       0.1       3.9
 5 H  s               0.2       5.6       0.7       1.7       0.0       0.2
 5 H  pz              0.1       0.8       0.0       0.2       0.0       0.0
 5 H  px              1.8       7.2       0.1       2.5       0.1       0.1
 5 H  py              0.1      10.7       3.9       2.2       0.0       1.2
 6 H  s               0.2       0.9       0.0       4.8       0.5       0.1
 6 H  pz              0.0       0.0       0.0       0.1       0.0       0.2
 6 H  px              0.1       0.7       0.3       6.0       0.2       2.7
 6 H  py              0.7       2.3       0.4       8.4       1.7       0.5
 7 H  s               0.0       0.0       0.0       0.0       4.5       0.1
 7 H  pz              0.0       0.2       0.0       0.0       3.7       0.1
 7 H  px              0.1       0.0       0.0       0.0       7.4       0.4
 7 H  py              0.6       0.0       0.5       0.2       0.8       0.0
 8 H  s               0.0       0.0       0.0       0.0       4.5       0.1
 8 H  pz              0.0       0.1       0.0       0.0       9.1       0.0
 8 H  px              0.1       0.1       0.0       0.0       2.5       0.5
 8 H  py              0.6       0.0       0.5       0.2       0.3       0.1
 9 H  s               0.2       0.9       0.0       4.8       0.5       0.1
 9 H  pz              0.0       0.0       0.0       0.1       0.0       0.2
 9 H  px              0.0       0.1       0.7       0.1       0.2       3.0
 9 H  py              0.8       2.9       0.0      14.3       1.6       0.2
10 H  s               0.2       5.6       0.7       1.7       0.0       0.2
10 H  pz              0.1       0.7       0.0       0.2       0.0       0.0
10 H  px              1.5      16.8       1.9       4.6       0.1       0.2
10 H  py              0.4       1.1       2.1       0.1       0.0       1.1

                     96        97        98        99   
                   2.96389   3.11786   3.22891   3.45318
                   0.00000   0.00000   0.00000   0.00000
                  --------  --------  --------  --------
 0 C  s               0.0       0.0       0.4       1.0
 0 C  px              0.0       2.0       0.4       0.3
 0 C  py              0.0       0.4       0.0       0.8
 0 C  dz2             0.1       0.3       0.6       1.1
 0 C  dxz             0.3       0.9       0.3       0.4
 0 C  dyz             0.1       0.1       0.4       1.5
 0 C  dx2y2           0.0      20.9       0.1       0.6
 0 C  dxy             0.0       0.2       5.1      19.1
 1 C  s               0.0       0.4       1.4       0.4
 1 C  pz              0.0       0.1       0.0       0.0
 1 C  px              0.0       2.0       0.3       0.4
 1 C  py              0.0       0.1       0.9       0.2
 1 C  dz2             0.0       0.0       1.9       0.9
 1 C  dxz             0.5       0.4       0.0       0.0
 1 C  dyz             1.8       0.3       0.4       0.4
 1 C  dx2y2           0.1      11.3       1.7       0.0
 1 C  dxy             0.1       1.2      16.1       9.8
 2 C  pz              8.7       0.0       0.0       0.0
 2 C  px              0.5       0.1       0.2       0.0
 2 C  py              0.0       0.6       0.0       0.2
 2 C  dz2             6.8       0.0       0.1       0.0
 2 C  dxz            31.3       0.0       0.9       0.0
 2 C  dyz             3.3       0.4       0.1       0.0
 2 C  dx2y2           1.5       2.6       6.7       0.0
 2 C  dxy             0.8       4.9       3.6       0.0
 3 C  s               0.0       0.4       1.4       0.4
 3 C  pz              0.0       0.1       0.0       0.0
 3 C  px              0.0       1.8       0.0       0.1
 3 C  py              0.0       0.3       1.2       0.4
 3 C  dz2             0.0       0.0       1.9       0.9
 3 C  dxz             0.0       0.1       0.2       0.1
 3 C  dyz             2.3       0.6       0.2       0.3
 3 C  dx2y2           0.0       0.0      17.8       9.0
 3 C  dxy             0.1      12.5       0.0       0.8
 4 C  s               0.0       0.0       0.4       1.0
 4 C  px              0.0       0.7       0.3       0.9
 4 C  py              0.0       1.7       0.1       0.2
 4 C  dz2             0.1       0.3       0.6       1.1
 4 C  dxz             0.4       0.3       0.7       1.5
 4 C  dyz             0.0       0.6       0.0       0.4
 4 C  dx2y2           0.0       3.3       5.0      15.4
 4 C  dxy             0.0      17.8       0.2       4.4
 5 H  s               0.0       0.2       1.2       4.4
 5 H  pz              0.0       0.1       0.0       0.1
 5 H  px              0.0       2.6       0.1       1.2
 5 H  py              0.0       0.3       1.9       2.9
 6 H  s               0.0       0.0       4.5       2.0
 6 H  pz              0.4       0.1       0.0       0.0
 6 H  px              0.0       1.1       1.9       0.1
 6 H  py              0.0       0.3       3.6       2.2
 7 H  s               7.4       0.0       0.1       0.0
 7 H  pz              5.4       0.0       0.8       0.0
 7 H  px              6.6       0.0       0.1       0.0
 7 H  py              0.7       0.3       0.0       0.0
 8 H  s               7.4       0.0       0.1       0.0
 8 H  pz             10.8       0.0       0.5       0.0
 8 H  px              1.6       0.0       0.4       0.0
 8 H  py              0.2       0.3       0.0       0.0
 9 H  s               0.0       0.0       4.5       2.0
 9 H  pz              0.4       0.1       0.0       0.0
 9 H  px              0.0       1.3       0.0       0.4
 9 H  py              0.0       0.0       5.4       1.9
10 H  s               0.0       0.2       1.2       4.4
10 H  pz              0.0       0.1       0.0       0.1
10 H  px              0.0       0.9       1.0       3.6
10 H  py              0.0       2.0       0.9       0.5


                      *****************************
                      * MAYER POPULATION ANALYSIS *
                      *****************************

  NA   - Mulliken gross atomic population
  ZA   - Total nuclear charge
  QA   - Mulliken gross atomic charge
  VA   - Mayer's total valence
  BVA  - Mayer's bonded valence
  FA   - Mayer's free valence

  ATOM       NA         ZA         QA         VA         BVA        FA
  0 C      5.9883     6.0000     0.0117     3.8651     3.8651    -0.0000
  1 C      6.0794     6.0000    -0.0794     3.9322     3.9322    -0.0000
  2 C      5.8944     6.0000     0.1056     3.8847     3.8847    -0.0000
  3 C      6.0793     6.0000    -0.0793     3.9323     3.9323     0.0000
  4 C      5.9884     6.0000     0.0116     3.8650     3.8650    -0.0000
  5 H      1.0157     1.0000    -0.0157     0.9822     0.9822    -0.0000
  6 H      1.0072     1.0000    -0.0072     0.9870     0.9870     0.0000
  7 H      0.9622     1.0000     0.0378     0.9832     0.9832    -0.0000
  8 H      0.9623     1.0000     0.0377     0.9832     0.9832    -0.0000
  9 H      1.0073     1.0000    -0.0073     0.9870     0.9870    -0.0000
 10 H      1.0156     1.0000    -0.0156     0.9822     0.9822    -0.0000

  Mayer bond orders larger than 0.100000
B(  0-C ,  1-C ) :   1.7689 B(  0-C ,  4-C ) :   1.0830 B(  0-C ,  5-H ) :   0.9960 
B(  1-C ,  2-C ) :   1.0503 B(  1-C ,  6-H ) :   0.9887 B(  2-C ,  3-C ) :   1.0505 
B(  2-C ,  7-H ) :   0.9036 B(  2-C ,  8-H ) :   0.9038 B(  3-C ,  4-C ) :   1.7687 
B(  3-C ,  9-H ) :   0.9887 B(  4-C , 10-H ) :   0.9960 

-------
TIMINGS
-------

Total SCF time: 0 days 0 hours 0 min 2 sec 

Total time                  ....       2.942 sec
Sum of individual times     ....       2.580 sec  ( 87.7%)

SCF preparation             ....       0.027 sec  (  0.9%)
Fock matrix formation       ....       2.524 sec  ( 85.8%)
  Startup                   ....       0.000 sec  (  0.0% of F)
  Split-RI-J                ....       0.124 sec  (  4.9% of F)
  Chain of spheres X        ....       2.287 sec  ( 90.6% of F)
  XC integration            ....       0.438 sec  ( 17.3% of F)
    XC Preparation          ....       0.000 sec  (  0.0% of XC)
    Basis function eval.    ....       0.175 sec  ( 40.1% of XC)
    Density eval.           ....       0.100 sec  ( 23.0% of XC)
    XC-Functional eval.     ....       0.035 sec  (  8.0% of XC)
    XC-Potential eval.      ....       0.111 sec  ( 25.3% of XC)
Diagonalization             ....       0.000 sec  (  0.0%)
Density matrix formation    ....       0.000 sec  (  0.0%)
Total Energy calculation    ....       0.000 sec  (  0.0%)
Population analysis         ....       0.021 sec  (  0.7%)
Orbital Transformation      ....       0.005 sec  (  0.2%)
Orbital Orthonormalization  ....       0.000 sec  (  0.0%)
DIIS solution               ....       0.001 sec  (  0.0%)
  MO trafo                  ....       0.000 sec  (  0.0 % of DIIS)
  Orb grad                  ....       0.000 sec  (  0.0 % of DIIS)
  Energy W gradient         ....       0.000 sec  (  0.0 % of DIIS)
  DIIS error                ....       0.000 sec  ( 11.8 % of DIIS)
  DIIS work                 ....       0.001 sec  ( 86.4 % of DIIS)
  Form Q                    ....       0.000 sec  (  0.0 % of DIIS)
  Form QpQm                 ....       0.000 sec  (  0.0 % of DIIS)
  Exp/Cayley                ....       0.000 sec  (  0.0 % of DIIS)
  Orb update                ....       0.000 sec  (  0.0 % of DIIS)
  Wake-sleep                ....       0.000 sec  (  1.5 % of DIIS)
SOSCF solution              ....       0.002 sec  (  0.1%)
  MO trafo                  ....       0.001 sec  ( 51.2 % of SOSCF)
  Orb grad                  ....       0.000 sec  (  1.2 % of SOSCF)
  Rot update                ....       0.000 sec  (  3.0 % of SOSCF)
  Step                      ....       0.001 sec  ( 33.8 % of SOSCF)
Finished LeanSCF after   3.0 sec

Maximum memory used throughout the entire LEANSCF-calculation: 11.5 MB

-------------------------   --------------------
FINAL SINGLE POINT ENERGY      -193.831853850043
-------------------------   --------------------

                                *** OPTIMIZATION RUN DONE ***


------------------------------------------------------------------------------
                              ORCA PROPERTY CALCULATIONS
------------------------------------------------------------------------------

GBWName                                 ... cyklopentadien.gbw
Number of atoms                         ...     11
Number of basis functions               ...    100
Max core memory                         ...   4096 MB

Electric properties:
Dipole moment                           ... YES
Quadrupole moment                       ...  NO
Static polarizability (Dipole/Dipole)   ...  NO
Static polarizability (Dipole/Quad.)    ...  NO
Static polarizability (Quad./Quad.)     ...  NO
Static polarizability (Velocity)        ...  NO
Static hyperpolarizability              ...  NO

Atomic electric properties:
Dipole moment                           ...  NO
Quadrupole moment                       ...  NO
Static polarizability                   ...  NO

Choice of electric origin               ... Center of mass
Position of electric origin             ...    -1.525196     1.988529     0.045861

General magnetic properties:
Magnetizability                         ...  NO

EPR properties:
g-Tensor (aka g-matrix)                 ...  NO
Zero-Field splitting spin-orbit         ...  NO
Zero-field splitting spin-spin          ...  NO
Hyperfine couplings                     ...  NO (   0 nuclei)
Quadrupole couplings                    ...  NO (   0 nuclei)
Contact density                         ...  NO (   0 nuclei)

NMR properties:
Chemical shifts                         ...  NO (   0 nuclei)
Spin-rotation constants                 ...  NO (   0 nuclei)
Spin-spin couplings                     ...  NO (   0 nuclei,    0 pairs)

Choice of magnetic origin               ... GIAO
Position of magnetic origin             ...     0.000000     0.000000     0.000000

Properties with geometric perturbations:
SCF Hessian                             ...  NO
IR spectrum                             ...  NO
VCD spectrum                            ...  NO
X-ray spectroscopy properties:
SCF XES/XAS/RIXS spectra                ...  NO

SCF SOC stabilization energy            ...  NO
Diagonal Born-Oppenheimer correction    ...  NO

-------------
DIPOLE MOMENT
-------------

Method             : SCF
Type of density    : Electron Density
Multiplicity       :   1
Irrep              :   0
Energy             :  -193.8318538500433021 Eh
Basis              : AO
                                X                 Y                 Z
Electronic contribution:      0.964989060      -0.314178547      -0.244819758
Nuclear contribution   :     -1.149036656       0.374043966       0.291356221
                        -----------------------------------------
Total Dipole Moment    :     -0.184047597       0.059865419       0.046536463
                        -----------------------------------------
Magnitude (a.u.)       :      0.199055340
Magnitude (Debye)      :      0.505958466



--------------------
Rotational spectrum 
--------------------
 
Rotational constants in cm-1:             0.280351             0.273155             0.142005 
Rotational constants in MHz :          8404.701266          8188.978234          4257.199598 

Dipole components along the rotational axes: 
x,y,z [a.u.] :    -0.000075     0.199055    -0.000401 
x,y,z [Debye]:    -0.000190     0.505957    -0.001019 

 

Dipole moment calculation done in   0.0 sec 

Maximum memory used throughout the entire PROP-calculation: 6.2 MB

--------------------------------
SUGGESTED CITATIONS FOR THIS RUN
--------------------------------

Below you find a list of papers that are relevant to this ORCA run
We neither can nor want to force you to cite these papers, but we appreciate if you do
You receive ORCA, which is the product of decades of hard work by many enthusiastic individuals, for free
The only thing we kindly ask in return is that you cite our papers,
We deeply appreciate it, if you show your appreciation for ORCA by not just citing the generic ORCA reference.

Please note that relegating all ORCA citations to the supporting information does *not* help us.
SI sections are not indexed - citations you put there will not count into any citation statistics
But we need these citations in order to attract the funding resources that allow us to do what we are doing

Therefore, if you are a happy ORCA user, please consider citing a few of the papers listed below in the main body of your paper

In addition to the list printed below, the program has created the file cyklopentadien.bibtex that contains the list in bibtex format
You can import this file easily into all common literature databanks and citation aid programs


List of essential papers. We consider these as the minimum necessary citations

  1. Neese, F.
     Software update: the ORCA program system, version 6.0
     WIRES Comput. Molec. Sci. 2025 15(1), e70019
     doi.org/10.1002/wcms.7019

List of papers to cite with high priority. The work reported in these papers was absolutely
necessary for this run to complete.
Our perspective: the developers of density functionals and basis sets usually get cited in chemistry papers
Good! But without the algorithms to do something with them, the functionals or basis sets would not do anything.
Hence, in our opinion, the algorithm design and method developments papers are equally worthy of getting cited

  1. Neese, F.
     An improvement of the resolution of the identity approximation for the formation of the Coulomb matrix
     J. Comp. Chem. 2003 24(14), 1740-1747
     doi.org/10.1002/jcc.10318
  2. Neese, F.; Wennmohs, F.; Hansen, A.; Becker, U.
     Efficient, approximate and parallel Hartree-Fock and hybrid DFT calculations. A 'chain-of-spheres' algorithm for the Hartree-Fock exchange
     Chem. Phys. 2009 356(1-3), 98-109
     doi.org/10.1016/j.chemphys.2008.10.036
  3. Helmich-Paris, B.; de Souza, B.; Neese, F.; Izsák, R.
     An improved chain of spheres for exchange algorithm
     J. Chem. Phys. 2021 155(10), 104109
     doi.org/10.1063/5.0058766
  4. Neese, F.
     The SHARK Integral Generation and Digestion System
     J. Comp. Chem. 2022 44(3), 381
     doi.org/10.1002/jcc.26942

List of suggested additional citations. These are papers that are important in the 'surrounding' of 
of this run, or papers that preceded the highly important papers. If you like your results we are grateful for a citation.

  1. Izsak, R.; Neese, F.
     An overlap fitted chain of spheres exchange method
     J. Chem. Phys. 2011 135 , 144105
     doi.org/10.1063/1.3646921
  2. Izsak, R.; Hansen, A.; Neese, F.
     The resolution of identity and chain of spheres approximations for the LPNO-CCSD singles Fock term
     Molec. Phys. 2012 110 , 2413-2417
     doi.org/10.1080/00268976.2012.687466
  3. Neese, F.
     The ORCA program system
     WIRES Comput. Molec. Sci. 2012 2(1), 73-78
     doi.org/10.1002/wcms.81
  4. Izsak, R.; Neese, F.; Klopper, W.
     Robust fitting techniques in the chain of spheres approximation to the Fock exchange: The role of the complementary space
     J. Chem. Phys. 2013 139 , 
     doi.org/10.1063/1.4819264
  5. Neese, F.
     Software update: the ORCA program system, version 4.0
     WIRES Comput. Molec. Sci. 2018 8(1), 1-6
     doi.org/10.1002/wcms.1327
  6. Neese, F.; Wennmohs, F.; Becker, U.; Riplinger, C.
     The ORCA quantum chemistry program package
     J. Chem. Phys. 2020 152(22), 224108
     doi.org/10.1063/5.0004608
  7. Neese, F.
     Software update: The ORCA program system—Version 5.0
     WIRES Comput. Molec. Sci. 2022 12(1), e1606
     doi.org/10.1002/wcms.1606

List of optional additional citations

  1. Neese, F.
     Approximate second-order SCF convergence for spin unrestricted wavefunctions
     Chem. Phys. Lett. 2000 325(1-3), 93-98
     doi.org/10.1016/s0009-2614(00)00662-x

Timings for individual modules:

Sum of individual times          ...       66.123 sec (=   1.102 min)
Startup calculation              ...        2.258 sec (=   0.038 min)   3.4 %
SCF iterations                   ...       32.119 sec (=   0.535 min)  48.6 %
Property calculations            ...        0.032 sec (=   0.001 min)   0.0 %
SCF Gradient evaluation          ...       31.691 sec (=   0.528 min)  47.9 %
Geometry relaxation              ...        0.023 sec (=   0.000 min)   0.0 %
                             ****ORCA TERMINATED NORMALLY****
TOTAL RUN TIME: 0 days 0 hours 1 minutes 6 seconds 264 msec
