
                                 *****************
                                 * O   R   C   A *
                                 *****************

                                            #,                                       
                                            ###                                      
                                            ####                                     
                                            #####                                    
                                            ######                                   
                                           ########,                                 
                                     ,,################,,,,,                         
                               ,,#################################,,                 
                          ,,##########################################,,             
                       ,#########################################, ''#####,          
                    ,#############################################,,   '####,        
                  ,##################################################,,,,####,       
                ,###########''''           ''''###############################       
              ,#####''   ,,,,##########,,,,          '''####'''          '####       
            ,##' ,,,,###########################,,,                        '##       
           ' ,,###''''                  '''############,,,                           
         ,,##''                                '''############,,,,        ,,,,,,###''
      ,#''                                            '''#######################'''  
     '                                                          ''''####''''         
             ,#######,   #######,   ,#######,      ##                                
            ,#'     '#,  ##    ##  ,#'     '#,    #''#        ,####,    ,#,          
            ##       ##  ##   ,#'  ##            #'  '#       #'       ,# #          
            ##       ##  #######   ##           ,######,      #####,      #          
            '#,     ,#'  ##    ##  '#,     ,#' ,#      #,     #,   #      #          
             '#######'   ##     ##  '#######'  #'      '#     '####' #    #          



                #########################################################
                #                        -***-                          #
                #          Department of theory and spectroscopy        #
                #                                                       #
                #                      Frank Neese                      #
                #                                                       #
                #     Directorship, Architecture, Infrastructure        #
                #                    SHARK, DRIVERS                     #
                #        Core code/Algorithms in most modules           #
                #                                                       #
                #        Max Planck Institute fuer Kohlenforschung      #
                #                Kaiser Wilhelm Platz 1                 #
                #                 D-45470 Muelheim/Ruhr                 #
                #                      Germany                          #
                #                                                       #
                #                  All rights reserved                  #
                #                        -***-                          #
                #########################################################


                         Program Version 6.1.0  -  RELEASE   -
                                (GIT: $679e74b$)
                          ($2025-06-10 18:02:51 +0200$)


 With contributions from (in alphabetic order):
[Max-Planck-Institut fuer Kohlenforschung]                               
  Daniel Aravena         : Magnetic Suceptibility                        
  Michael Atanasov       : Ab Initio Ligand Field Theory (pilot matlab implementation)
  Alexander A. Auer      : GIAO ZORA, VPT2 properties, NMR spectrum      
  Ute Becker             : All parallelization in ORCA, NUMFREQ, NUMCALC 
  Giovanni Bistoni       : ED, misc. LED, open-shell LED, HFLD           
  Dmytro Bykov           : pre 5.0 version of the SCF Hessian            
  Marcos Casanova-Páez   : Triplet and SCS-CIS(D). UHF-(DLPNO)-IP/EA/STEOM-CCSD. UHF-CVS-IP/STEOM-CCSD   
  Vijay G. Chilkuri      : MRCI spin determinant printing, contributions to CSF-ICE 
  Pauline Colinet        : FMM embedding                                 
  Dipayan Datta          : RHF DLPNO-CCSD density                        
  Achintya Kumar Dutta   : EOM-CC, STEOM-CC                              
  Nicolas Foglia         : Exact transition moments, OPA infrastructure, MCD improvements    
  Dmitry Ganyushin       : Spin-Orbit,Spin-Spin,Magnetic field MRCI      
  Miquel Garcia-Rates    : C-PCM and meta-GGA Hessian, CCSD/C-PCM, Gaussian charge scheme 
  Tiago L. C. Gouveia    : GS-ROHF, GS-ROCIS                             
  Yang Guo               : DLPNO-NEVPT2, F12-NEVPT2, CIM, IAO-localization        
  Andreas Hansen         : Spin unrestricted coupled pair/coupled cluster methods 
  Ingolf Harden          : AUTO-CI MPn and infrastructure                
  Benjamin Helmich-Paris : MC-RPA, TRAH-(SCF,CASSCF), AVAS, COSX integrals, SCF dyn. polar., MC-PDFT, srDFT 
  Lee Huntington         : MR-EOM, pCC                                   
  Robert Izsak           : Overlap fitted RIJCOSX, COSX-SCS-MP3, EOM     
  Riya Kayal             : Wick's Theorem for AUTO-CI, AUTO-CI UHF-CCSDT 
  Emily Kempfer          : AUTO-CI RHF CISDT and CCSDT, approximate NEVPT4
  Christian Kollmar      : KDIIS, OOCD, Brueckner-CCSD(T), CCSD density, CASPT2, CASPT2-K, improved NEVPT2 
  Axel Koslowski         : Symmetry handling                             
  Simone Kossmann        : meta-GGA functionals, TD-DFT gradient, OOMP2, (MP2 Hessian; deprecated post 5.0) 
  Lucas Lang             : DCDCAS, Hyperfine gauge corrections, ICE-SOC+SSC
  Marvin Lechner         : AUTO-CI (C++ implementation), FIC-MRCC        
  Spencer Leger          : CASSCF response                               
  Dagmar Lenk            : GEPOL surface, SMD, ORCA-2-JSON               
  Dimitrios Liakos       : Extrapolation schemes; Compound Job, Property file
  Dimitrios Manganas     : Further ROCIS development; embedding schemes. LFT, Crystal Embedding 
  Dimitrios Pantazis     : SARC Basis sets                               
  Anastasios Papadopoulos: AUTO-CI, single reference methods and gradients 
  Taras Petrenko         : pre 6.0 DFT Hessian and TD-DFT gradient,  ECA, NRVS 
  Petra Pikulova         : Analytic Raman intensities                    
  Peter Pinski           : DLPNO-MP2, DLPNO-MP2 Gradient                 
  Shashank Vittal Rao    : ES-AILFT, MagRelax                            
  Christoph Reimann      : Effective Core Potentials                     
  Marius Retegan         : Local ZFS, SOC                                
  Christoph Riplinger    : Optimizer, TS searches, QM/MM, DLPNO-CCSD(T), (RO)-DLPNO pert. Triples 
  Michael Roemelt        : Original ROCIS implementation, recursive CI coupling coefficients
  Masaaki Saitow         : Open-shell DLPNO-CCSD energy and density      
  Barbara Sandhoefer     : DKH picture change effects                    
  Yorick L. A. Schmerwitz: GMF and freeze-and-release deltaSCF, NEB S-IDPP initial path                    
  Kantharuban Sivalingam : CASSCF convergence/infrastructure, NEVPT2, NEVPT3, NEVPT4(SD), FIC-MRCI and CEPA variants
  Bernardo de Souza      : ESD, SOC TD-DFT                               
  Georgi L. Stoychev     : AutoAux, RI-MP2 NMR, DLPNO-MP2 response, X2C  
  Van Anh Tran           : RI-MP2 g-tensors                              
  Willem Van den Heuvel  : Paramagnetic NMR                              
  Zikuan Wang            : NOTCH, Electric field optimization            
  Frank Wennmohs         : Technical directorship and infrastructure     
  Hang Xu                : AUTO-CI-Response properties                   
                                                                         
[FACCTs GmbH]                                                            
  Markus Bursch, Nicolas Foglia, Miquel Garcia-Rates, Ingolf Harden, Hagen Neugebauer, Anastasios Papadopoulos, 
  Christoph Riplinger, Bernardo de Souza, Georgi L. Stoychev                                                    
                                                                 
  APM, various basis sets, CI-OPT, improved COSX, DLPNO-Multilevel,           
  DOCKER, DRACO, updates on ESD, Fragmentator, GOAT, IRC, LR-CPCM, L-BFGS, MBIS, meta-GGA TD-DFT gradient, ML-optimized integration grids, 
  MM, NACMEs, nearIR, NEB, NEB-TS, NL-DFT gradient (VV10), 2- and 3-layer-ONIOM, interface openCOSMO-RS, QMMM,   
  Crystal-QMMM, RESP, rigid body optimization, SF, symmetry and pop. for TD-DFT, various functionals, SOLVATOR                                   
                                                                         
[Other institutions]                                                     
  V. Asgeirsson          : NEB                                           
  Christoph Bannwarth    : sTDA-DFT, sTD-DFT, PBEh-3c, B97-3c, D3        
  Giovanni Bistoni       : ETS/NOCV, ADLD/ADEX, COVALED                  
  Martin Brehm           : Molecular dynamics                            
  Ronald Cardenas        : ETS/NOCV                                      
  Martina Colucci        : COVALED                                       
  Sebastian Ehlert       : rSCAN, r2SCAN, r2SCAN-3c, D4, dhf basis sets  
  Marvin Friede          : D4 for Fr, Ra, Ac-Lr                          
  Lars Goerigk           : TD-DFT with DH, B97 family of functionals     
  Stefan Grimme          : VdW corrections, initial TS optimization, DFT functionals, gCP, sTDA/sTD-DF 
  Waldemar Hujo          : DFT-NL                                        
  H. Jonsson             : NEB                                           
  Holger Kruse           : gCP                                           
  Marcel Mueller         : wB97X-3c, vDZP basis set                      
  Hagen Neugebauer       : wr2SCAN, Native XTB                           
  Gianluca Regni         : ADLD/ADEX                                     
  Tobias Risthaus        : pre 6.0 range-separated hybrid DFT and stability analysis
  Lukas Wittmann         : regularized MP2, r2SCAN double-hybrids, wr2SCAN        
                                                                         
We gratefully acknowledge several colleagues who have allowed us to      
interface, adapt or use parts of their codes:                            
  Ed Valeev, F. Pavosevic, A. Kumar             : LibInt (2-el integral package), F12 methods 
  Garnet Chan, S. Sharma, J. Yang, R. Olivares  : DMRG                   
  Ulf Ekstrom                                   : XCFun DFT Library      
  Mihaly Kallay                                 : mrcc  (arbitrary order and MRCC methods)
  Frank Weinhold                                : gennbo (NPA and NBO analysis)           
  Simon Mueller                                 : openCOSMO-RS                            
  Christopher J. Cramer and Donald G. Truhlar   : smd solvation model                     
  S Lehtola, MJT Oliveira, MAL Marques          : LibXC Library                           
  Liviu Ungur et al                             : ANISO software                          


 Your calculation uses the libint2 library for the computation of 2-el integrals
 For citations please refer to: http://libint.valeyev.net

 Your ORCA version has been built with support for libXC version: 7.0.0
 For citations please refer to: https://libxc.gitlab.io

 This ORCA versions uses:
   CBLAS   interface :  Fast vector & matrix operations
   LAPACKE interface :  Fast linear algebra routines
   SCALAPACK package :  Parallel linear algebra routines
   Shared memory     :  Shared parallel matrices
   BLAS/LAPACK       :  OpenBLAS 0.3.29  USE64BITINT DYNAMIC_ARCH NO_AFFINITY Haswell SINGLE_THREADED
        Core in use  :  Haswell
   Copyright (c) 2011-2014, The OpenBLAS Project


  ***********************************
  * Starting time: Tue Nov 25 09:30:05 2025
  * Host name:     PC-44
  * Process ID:    13800
  * Working dir.:  /home/m.dutkiewicz/chemia_obliczeniowa/cw_3
  ***********************************

Warning: RI is on but no J-basis has been assigned. Assigning Def2/J (nothing to worry about!)
================================================================================

----- Orbital basis set information -----
Your calculation utilizes the basis: def2-SVP
   F. Weigend and R. Ahlrichs, Phys. Chem. Chem. Phys. 7, 3297 (2005).

----- AuxJ basis set information -----
Your calculation utilizes the auxiliary basis: def2/J
   H-Rn: F. Weigend, Phys. Chem. Chem. Phys. 8, 1057 (2006).
   Fr-Lr: K. Eichkorn, F. Weigend, O. Treutler, R. Ahlrichs; Theor. Chem. Acc. 97, 119 (1997).

================================================================================
                                        WARNINGS
                       Please study these warnings very carefully!
================================================================================

WARNING: Old DensityContainer found on disk!
         Will remove this file - 
         If you want to keep old densities, please start your calculation with a different basename. 


WARNING: Geometry Optimization
  ===> : Switching off AutoStart
         For restart on a previous wavefunction, please use MOREAD

================================================================================
                                       INPUT FILE
================================================================================
NAME = eten.inp
|  1> !B3LYP def2-SVP Opt Largeprint
|  2> * xyz 0 1
|  3>  C        -0.194410        0.090800       -0.225190
|  4>  C        -1.482380       -0.095410       -0.504770
|  5>  H         0.182060        1.088000       -0.021500
|  6>  H         0.486950       -0.753410       -0.199230
|  7>  H        -2.163680        0.748830       -0.530710
|  8>  H        -1.858860       -1.092600       -0.708490
|  9> *
| 10> 
| 11>                          ****END OF INPUT****
================================================================================

                       *****************************
                       * Geometry Optimization Run *
                       *****************************

Geometry optimization settings:
Update method            Update   .... BFGS
Choice of coordinates    CoordSys .... (2022) Redundant Internals
Initial Hessian          InHess   .... Almloef's Model
Max. no of cycles        MaxIter  .... 50

Convergence Tolerances:
Energy Change            TolE     ....  5.0000e-06 Eh
Max. Gradient            TolMAXG  ....  3.0000e-04 Eh/bohr
RMS Gradient             TolRMSG  ....  1.0000e-04 Eh/bohr
Max. Displacement        TolMAXD  ....  4.0000e-03 bohr
RMS Displacement         TolRMSD  ....  2.0000e-03 bohr
Strict Convergence                .... False

------------------------------------------------------------------------------
                        ORCA OPTIMIZATION COORDINATE SETUP
------------------------------------------------------------------------------

The optimization will be done in redundant internal coordinates (2022)
Making redundant internal coordinates   ...  (2022 redundants) done
Evaluating the initial hessian          ...  (Almloef) done
Evaluating the coordinates              ...  done
Calculating the B-matrix                .... done
Calculating the G-matrix                .... done
The number of degrees of freedom        ....   15

    -----------------------------------------------------------------
                    Redundant Internal Coordinates


    -----------------------------------------------------------------
         Definition                    Initial Value    Approx d2E/dq
    -----------------------------------------------------------------
      1. B(C   1,C   0)                  1.3311         0.775858   
      2. B(H   2,C   0)                  1.0852         0.366526   
      3. B(H   3,C   0)                  1.0852         0.366533   
      4. B(H   4,C   1)                  1.0852         0.366553   
      5. B(H   5,C   1)                  1.0852         0.366526   
      6. A(H   2,C   0,H   3)          119.5088         0.292463   
      7. A(C   1,C   0,H   2)          120.2430         0.367763   
      8. A(C   1,C   0,H   3)          120.2482         0.367765   
      9. A(H   4,C   1,H   5)          119.5116         0.292465   
     10. A(C   0,C   1,H   5)          120.2439         0.367764   
     11. A(C   0,C   1,H   4)          120.2446         0.367768   
     12. D(H   4,C   1,C   0,H   3)    179.9997         0.043219   
     13. D(H   5,C   1,C   0,H   2)    179.9983         0.043219   
     14. D(H   5,C   1,C   0,H   3)     -0.0029         0.043219   
     15. D(H   4,C   1,C   0,H   2)      0.0009         0.043219   
    -----------------------------------------------------------------

Number of atoms                         .... 6
Number of degrees of freedom            .... 15


         *************************************************************
         *                GEOMETRY OPTIMIZATION CYCLE   1            *
         *************************************************************
---------------------------------
CARTESIAN COORDINATES (ANGSTROEM)
---------------------------------
  C     -0.194410    0.090800   -0.225190
  C     -1.482380   -0.095410   -0.504770
  H      0.182060    1.088000   -0.021500
  H      0.486950   -0.753410   -0.199230
  H     -2.163680    0.748830   -0.530710
  H     -1.858860   -1.092600   -0.708490

----------------------------
CARTESIAN COORDINATES (A.U.)
----------------------------
  NO LB      ZA    FRAG     MASS         X           Y           Z
   0 C     6.0000    0    12.011   -0.367382    0.171587   -0.425547
   1 C     6.0000    0    12.011   -2.801292   -0.180299   -0.953877
   2 H     1.0000    0     1.008    0.344044    2.056022   -0.040629
   3 H     1.0000    0     1.008    0.920202   -1.423739   -0.376490
   4 H     1.0000    0     1.008   -4.088763    1.415084   -1.002897
   5 H     1.0000    0     1.008   -3.512736   -2.064715   -1.338852

--------------------------------
INTERNAL COORDINATES (ANGSTROEM)
--------------------------------
 C      0   0   0     0.000000000000     0.00000000     0.00000000
 C      1   0   0     1.331054417145     0.00000000     0.00000000
 H      1   2   0     1.085185291552   120.24296107     0.00000000
 H      1   2   3     1.085180121132   120.24819241   179.99882706
 H      2   1   3     1.085165310540   120.24458668     0.00000000
 H      2   1   3     1.085185203041   120.24385480   179.99825688

---------------------------
INTERNAL COORDINATES (A.U.)
---------------------------
 C      0   0   0     0.000000000000     0.00000000     0.00000000
 C      1   0   0     2.515328317749     0.00000000     0.00000000
 H      1   2   0     2.050703005592   120.24296107     0.00000000
 H      1   2   3     2.050693234915   120.24819241   179.99882706
 H      2   1   3     2.050665246953   120.24458668     0.00000000
 H      2   1   3     2.050702838332   120.24385480   179.99825688

---------------------
BASIS SET INFORMATION
---------------------
There are 2 groups of distinct atoms

 Group   1 Type C   : 7s4p1d contracted to 3s2p1d pattern {511/31/1}
 Group   2 Type H   : 4s1p contracted to 2s1p pattern {31/1}

Atom   0C    basis set group =>   1
Atom   1C    basis set group =>   1
Atom   2H    basis set group =>   2
Atom   3H    basis set group =>   2
Atom   4H    basis set group =>   2
Atom   5H    basis set group =>   2

-------------------------
BASIS SET IN INPUT FORMAT
-------------------------

 # Basis set for element : H 
 NewGTO H 
 S 3 
   1      13.0107010000      0.0334854848
   2       1.9622572000      0.2347218709
   3       0.4445379600      0.8137702853
 S 1 
   1       0.1219496200      1.0000000000
 P 1 
   1       0.8000000000      1.0000000000
  end;

 # Basis set for element : C 
 NewGTO C 
 S 5 
   1    1238.4016938000      0.0055173650
   2     186.2900499200      0.0410888285
   3      42.2511763460      0.1822538213
   4      11.6765579320      0.4682845944
   5       3.5930506482      0.4457581734
 S 1 
   1       0.4024514736      1.0000000000
 S 1 
   1       0.1309018267      1.0000000000
 P 3 
   1       9.4680970621      0.0568883320
   2       2.0103545142      0.3129405934
   3       0.5477100471      0.7606501651
 P 1 
   1       0.1526861379      1.0000000000
 D 1 
   1       0.8000000000      1.0000000000
  end;

---------------------------------
AUXILIARY/J BASIS SET INFORMATION
---------------------------------
There are 2 groups of distinct atoms

 Group   1 Type C   : 12s5p4d2f1g contracted to 6s4p3d1f1g pattern {711111/2111/211/2/1}
 Group   2 Type H   : 5s2p1d contracted to 3s1p1d pattern {311/2/1}

Atom   0C    basis set group =>   1
Atom   1C    basis set group =>   1
Atom   2H    basis set group =>   2
Atom   3H    basis set group =>   2
Atom   4H    basis set group =>   2
Atom   5H    basis set group =>   2

-------------------------------------
AUXILIARY/J BASIS SET IN INPUT FORMAT
-------------------------------------

 # Auxiliary/J basis set for element : H 
 NewAuxJGTO H 
 S 3 
   1      15.6752927000      0.1007184237
   2       3.6063578000      0.3404257499
   3       1.2080016000      0.6491996172
 S 1 
   1       0.4726794000      1.0000000000
 S 1 
   1       0.2018100000      1.0000000000
 P 2 
   1       2.0281365000      0.5596620919
   2       0.5358730000      0.5596620919
 D 1 
   1       2.2165124000      1.0000000000
  end;

 # Auxiliary/J basis set for element : C 
 NewAuxJGTO C 
 S 7 
   1    1861.0916331000      0.0134602335
   2     642.9939764000      0.0299160374
   3     235.1105725000      0.1008649584
   4      90.7028894000      0.2370970548
   5      36.7794552000      0.3924037254
   6      15.6046273000      0.3195862154
   7       6.8907294000      0.0530104441
 S 1 
   1       3.1478850000     -1.0000000000
 S 1 
   1       1.4777287000      1.0000000000
 S 1 
   1       0.7076466000      1.0000000000
 S 1 
   1       0.3430122000      1.0000000000
 S 1 
   1       0.1669453000      1.0000000000
 P 2 
   1      13.5472892000     -0.6769313712
   2       5.4669419000     -0.3779500978
 P 1 
   1       2.1751721000      1.0000000000
 P 1 
   1       0.8582194000      1.0000000000
 P 1 
   1       0.3376720000      1.0000000000
 D 2 
   1       5.9287253000     -0.3533329857
   2       1.9809209000     -0.7456525731
 D 1 
   1       0.8055417000     -1.0000000000
 D 1 
   1       0.3531244000     -1.0000000000
 F 2 
   1       1.6755626000      0.6311076882
   2       0.5997536000      0.4968166032
 G 1 
   1       1.0024600000     -1.0000000000
  end;

------------------------------------------------------------------------------
                             ORCA STARTUP CALCULATIONS
                           -- RI-GTO INTEGRALS CHOSEN --
------------------------------------------------------------------------------
------------------------------------------------------------------------------
                   ___                                                        
                  /   \      - P O W E R E D   B Y -                         
                 /     \                                                     
                 |  |  |   _    _      __       _____    __    __             
                 |  |  |  | |  | |    /  \     |  _  \  |  |  /  |          
                  \  \/   | |  | |   /    \    | | | |  |  | /  /          
                 / \  \   | |__| |  /  /\  \   | |_| |  |  |/  /          
                |  |  |   |  __  | /  /__\  \  |    /   |      \           
                |  |  |   | |  | | |   __   |  |    \   |  |\   \          
                \     /   | |  | | |  |  |  |  | |\  \  |  | \   \       
                 \___/    |_|  |_| |__|  |__|  |_| \__\ |__|  \__/        
                                                                              
                      - O R C A' S   B I G   F R I E N D -                    
                                      &                                       
                       - I N T E G R A L  F E E D E R -                       
                                                                              
 v1 FN, 2020, v2 2021, v3 2022-2024                                           
------------------------------------------------------------------------------


----------------------
SHARK INTEGRAL PACKAGE
----------------------

Number of atoms                             ...      6
Number of basis functions                   ...     48
Number of shells                            ...     24
Maximum angular momentum                    ...      2
Integral batch strategy                     ... SHARK/LIBINT Hybrid
RI-J (if used) integral strategy            ... SPLIT-RIJ (Revised 2003 algorithm where possible)
Printlevel                                  ...      1
Contraction scheme used                     ... SEGMENTED contraction
Prescreening option                         ... SCHWARTZ
   Thresh                                   ... 2.500e-11
   Tcut                                     ... 2.500e-12
   Tpresel                                  ... 2.500e-12 
Coulomb Range Separation                    ... NOT USED
Exchange Range Separation                   ... NOT USED
Multipole approximations                    ... NOT USED
Finite Nucleus Model                        ... NOT USED
CABS basis                                  ... NOT available
Auxiliary Coulomb fitting basis             ... AVAILABLE
   # of basis functions in Aux-J            ...    142
   # of shells in Aux-J                     ...     50
   Maximum angular momentum in Aux-J        ...      4
Auxiliary J/K fitting basis                 ... NOT available
Auxiliary Correlation fitting basis         ... NOT available
Auxiliary 'external' fitting basis          ... NOT available

Checking pre-screening integrals            ... done (  0.0 sec) Dimension = 24
   => SHARK Basis and OBASIS are compatible. Storing Pre-screening
Shell pair information
Shell pair cut-off parameter TPreSel        ...   2.5e-12
Total number of shell pairs                 ...       300
Shell pairs after pre-screening             ...       300
Total number of primitive shell pairs       ...      1028
Primitive shell pairs kept                  ...       939
          la=0 lb=0:    105 shell pairs
          la=1 lb=0:    112 shell pairs
          la=1 lb=1:     36 shell pairs
          la=2 lb=0:     28 shell pairs
          la=2 lb=1:     16 shell pairs
          la=2 lb=2:      3 shell pairs

Checking whether 4 symmetric matrices of dimension 48 fit in memory
:Max Core in MB      =   4096.00
 MB in use           =      3.57
 MB left             =   4092.43
 MB needed           =      0.04
 Data fit in memory  = YES
Calculating RI/J V-Matrix + Cholesky decomp.... done (  0.0 sec)
Calculating Nuclear repulsion               ... done (  0.0 sec) ENN=     33.413562220259 Eh

Diagonalization of the overlap matrix:
Smallest eigenvalue                        ... 3.882e-03
Time for diagonalization                   ...    0.000 sec
Threshold for overlap eigenvalues          ... 1.000e-07
Number of eigenvalues below threshold      ... 0
Time for construction of square roots      ...    0.000 sec
Total time needed                          ...    0.000 sec

-------------------
DFT GRID GENERATION
-------------------

General Integration Accuracy     IntAcc      ... 4.388
Radial Grid Type                 RadialGrid  ... OptM3 with GC (2021)
Angular Grid (max. ang.)         AngularGrid ... 4 (Lebedev-302)
Angular grid pruning method      GridPruning ... 4 (adaptive)
Weight generation scheme         WeightScheme... mBecke (2022)
Basis function cutoff            BFCut       ... 1.0000e-11
Integration weight cutoff        WCut        ... 1.0000e-14
Partially contracted basis set               ... off
Rotationally invariant grid construction     ... off
Angular grids for H and He will be reduced by one unit

Total number of grid points                  ...    25300
Total number of batches                      ...      398
Average number of points per batch           ...       63
Average number of grid points per atom       ...     4217

--------------------
COSX GRID GENERATION
--------------------

GRIDX 1
-------
General Integration Accuracy     IntAcc      ... 3.816
Radial Grid Type                 RadialGrid  ... OptM3 with GC (2021)
Angular Grid (max. ang.)         AngularGrid ... 1 (Lebedev-50)
Angular grid pruning method      GridPruning ... 4 (adaptive)
Weight generation scheme         WeightScheme... mBecke (2022)
Basis function cutoff            BFCut       ... 1.0000e-11
Integration weight cutoff        WCut        ... 1.0000e-14
Partially contracted basis set               ... on
Rotationally invariant grid construction     ... off
Angular grids for H and He will be reduced by one unit

Total number of grid points                  ...     3286
Total number of batches                      ...       30
Average number of points per batch           ...      109
Average number of grid points per atom       ...      548
UseSFitting                                  ... on

GRIDX 2
-------
General Integration Accuracy     IntAcc      ... 4.020
Radial Grid Type                 RadialGrid  ... OptM3 with GC (2021)
Angular Grid (max. ang.)         AngularGrid ... 2 (Lebedev-110)
Angular grid pruning method      GridPruning ... 4 (adaptive)
Weight generation scheme         WeightScheme... mBecke (2022)
Basis function cutoff            BFCut       ... 1.0000e-11
Integration weight cutoff        WCut        ... 1.0000e-14
Partially contracted basis set               ... on
Rotationally invariant grid construction     ... off
Angular grids for H and He will be reduced by one unit

Total number of grid points                  ...     6902
Total number of batches                      ...       58
Average number of points per batch           ...      119
Average number of grid points per atom       ...     1150
UseSFitting                                  ... on

GRIDX 3
-------
General Integration Accuracy     IntAcc      ... 4.338
Radial Grid Type                 RadialGrid  ... OptM3 with GC (2021)
Angular Grid (max. ang.)         AngularGrid ... 3 (Lebedev-194)
Angular grid pruning method      GridPruning ... 4 (adaptive)
Weight generation scheme         WeightScheme... mBecke (2022)
Basis function cutoff            BFCut       ... 1.0000e-11
Integration weight cutoff        WCut        ... 1.0000e-14
Partially contracted basis set               ... on
Rotationally invariant grid construction     ... off
Angular grids for H and He will be reduced by one unit

Total number of grid points                  ...    15252
Total number of batches                      ...      124
Average number of points per batch           ...      123
Average number of grid points per atom       ...     2542
UseSFitting                                  ... on
Grids setup in   0.1 sec
Initializing property integral containers    ... done (  0.0 sec)

SHARK setup successfully completed in   0.1 seconds

Maximum memory used throughout the entire STARTUP-calculation: 11.4 MB
-------------------------------------------------------------------------------
                                 ORCA GUESS
                   Start orbitals & Density for SCF / CASSCF
-------------------------------------------------------------------------------

------------
SCF SETTINGS
------------
Hamiltonian:
 Density Functional     Method          .... DFT(GTOs)
 Exchange Functional    Exchange        .... B88
   X-Alpha parameter    XAlpha          ....  0.666667
   Becke's b parameter  XBeta           ....  0.004200
 Correlation Functional Correlation     .... LYP
 LDA part of GGA corr.  LDAOpt          .... VWN-5
 Gradients option       PostSCFGGA      .... off
 Hybrid DFT is turned on
   Fraction HF Exchange ScalHFX         ....  0.200000
   Scaling of DF-GGA-X  ScalDFX         ....  0.720000
   Scaling of DF-GGA-C  ScalDFC         ....  0.810000
   Scaling of DF-LDA-C  ScalLDAC        ....  1.000000
   Perturbative correction              ....  0.000000
   NL short-range parameter             ....  4.800000
 RI-approximation to the Coulomb term is turned on
   Number of AuxJ basis functions       .... 142
   RIJ-COSX (HFX calculated with COS-X)).... on


General Settings:
 Integral files         IntName         .... eten
 Hartree-Fock type      HFTyp           .... RHF
 Total Charge           Charge          ....    0
 Multiplicity           Mult            ....    1
 Number of Electrons    NEL             ....   16
 Basis Dimension        Dim             ....   48
 Nuclear Repulsion      ENuc            ....     33.4135622203 Eh

Convergence Acceleration:
 AO-DIIS                CNVDIIS         .... on
   Start iteration      DIISMaxIt       ....    12
   Startup error        DIISStart       ....  0.200000
   # of expansion vecs  DIISMaxEq       ....     5
   Bias factor          DIISBfac        ....   1.050
   Max. coefficient     DIISMaxC        ....  10.000
 MO-DIIS                CNVKDIIS        .... off
 Trust-Rad. Augm. Hess. CNVTRAH         .... auto
   Auto Start mean grad. ratio tolernc. ....  1.125000
   Auto Start start iteration           ....    50
   Auto Start num. interpolation iter.  ....    10
   Max. Number of Micro iterations      ....    24
   Max. Number of Macro iterations      .... Maxiter - #DIIS iter
   Number of Davidson start vectors     ....     2
   Converg. threshold    (grad. norm)   ....   1.000e-05
   Grad. Scal. Fac. for Micro threshold ....   0.100
   Minimum threshold for Micro iter.    ....   1.000e-02
   NR start threshold (gradient norm)   ....   1.000e-04
   Initial trust radius                 ....   0.400
   Minimum AH scaling param. (alpha)    ....   1.000
   Maximum AH scaling param. (alpha)    .... 1000.000
   Quad. conv. algorithm                .... NR
   White noise on init. David. guess    .... on
   Maximum white noise                  ....   0.010
   Pseudo random numbers                .... off
   Inactive MOs                         .... canonical
   Orbital update algorithm             .... Taylor
   Preconditioner                       .... Diag
   Full preconditioner red. dimension   ....   250
 SOSCF                 CNVSOSCF           .... on
   Start iteration     SOSCFMaxIt         ....   150
   Startup grad/error  SOSCFStart         ....  0.003300
   Hessian update      SOSCFHessUp        .... L-BFGS
   Autom. constraints  SOSCFAutoConstrain .... off
 Level Shifting         CNVShift        .... on
   Level shift para.    LevelShift      ....    0.2500
   Turn off err/grad.   ShiftErr        ....    0.0010
 Zerner damping         CNVZerner       .... off
 Static damping         CNVDamp         .... on
   Fraction old density DampFac         ....    0.7000
   Max. Damping (<1)    DampMax         ....    0.9800
   Min. Damping (>=0)   DampMin         ....    0.0000
   Turn off err/grad.   DampErr         ....    0.1000

SCF Procedure:
 Maximum # iterations   MaxIter         ....   125
 SCF integral mode      SCFMode         .... Direct
   Integral package                     .... SHARK and LIBINT hybrid scheme
 Reset frequency        DirectResetFreq ....    20
 Integral Threshold     Thresh          ....  2.500e-11 Eh
 Primitive CutOff       TCut            ....  2.500e-12 Eh

Convergence Tolerance:
 Convergence Check Mode ConvCheckMode   .... Total+1el-Energy
 Convergence forced     ConvForced      .... 0
 Energy Change          TolE            ....  1.000e-08 Eh
 1-El. energy change                    ....  1.000e-05 Eh
 Orbital Gradient       TolG            ....  1.000e-05
 Orbital Rotation angle TolX            ....  1.000e-05
 DIIS Error             TolErr          ....  5.000e-07

------------------------------
INITIAL GUESS: MODEL POTENTIAL
------------------------------
Loading Hartree-Fock densities                     ... done
Calculating cut-offs                               ... done
Initializing the effective Hamiltonian             ... done
Setting up the integral package (SHARK)            ... done
Starting the Coulomb interaction                   ... done (   0.0 sec)
Making the grid                                    ... done (   0.0 sec)
Mapping shells                                     ... done
Starting the XC term evaluation                    ... done (   0.0 sec)
  promolecular density results
     # of electrons  =     15.997763473
     EX              =    -11.421632747
     EC              =     -0.491491760
     EX+EC           =    -11.913124506
Transforming the Hamiltonian                       ... done (   0.0 sec)
Diagonalizing the Hamiltonian                      ... done (   0.0 sec)
Back transforming the eigenvectors                 ... done (   0.0 sec)
Now organizing SCF variables                       ... done
                      ------------------
                      INITIAL GUESS DONE (   0.0 sec)
                      ------------------
----------------------
INITIAL GUESS ORBITALS
----------------------
                      0         1         2         3         4         5   
                 -10.10397 -10.10353  -0.82675  -0.62771  -0.54448  -0.50498
                   2.00000   2.00000   2.00000   2.00000   2.00000   2.00000
                  --------  --------  --------  --------  --------  --------
  0C   1s        -0.697581 -0.699096 -0.209773 -0.167325  0.000013  0.009293
  0C   2s        -0.031846 -0.040121  0.427394  0.367163 -0.000004 -0.013091
  0C   3s         0.016868  0.035125  0.070374  0.057325 -0.000576 -0.041544
  0C   1pz       -0.000483  0.000552 -0.032112  0.036971 -0.034935 -0.091935
  0C   1px       -0.002222  0.002545 -0.147827  0.170429  0.059921 -0.423515
  0C   1py       -0.000321  0.000368 -0.021383  0.024583 -0.362138 -0.061117
  0C   2pz        0.000056 -0.000697 -0.004508  0.012721 -0.009999 -0.021041
  0C   2px        0.000254 -0.003212 -0.020869  0.058595  0.017550 -0.097126
  0C   2py        0.000039 -0.000464 -0.002880  0.008506 -0.104349 -0.013973
  0C   1dz2       0.001166  0.003028 -0.010338 -0.001998  0.000269  0.001138
  0C   1dxz      -0.000243 -0.001241  0.006670 -0.001921  0.000437  0.003243
  0C   1dyz      -0.000312 -0.000657  0.001654  0.001121  0.001672 -0.001165
  0C   1dx2y2     0.000709 -0.000630  0.011988 -0.010675 -0.002223  0.014827
  0C   1dxy       0.000273 -0.000079  0.003364 -0.003483  0.007031  0.004766
  1C   1s        -0.699998  0.696676 -0.209775  0.167322 -0.000020  0.009297
  1C   2s        -0.031985  0.040010  0.427398 -0.367156  0.000018 -0.013099
  1C   3s         0.016990 -0.035066  0.070369 -0.057323  0.000585 -0.041546
  1C   1pz        0.000481  0.000554  0.032111  0.036972 -0.034940  0.091940
  1C   1px        0.002213  0.002552  0.147825  0.170426  0.059925  0.423518
  1C   1py        0.000320  0.000369  0.021391  0.024576 -0.362158  0.061110
  1C   2pz       -0.000053 -0.000697  0.004507  0.012721 -0.009999  0.021043
  1C   2px       -0.000243 -0.003213  0.020866  0.058595  0.017547  0.097129
  1C   2py       -0.000037 -0.000464  0.002879  0.008507 -0.104341  0.013971
  1C   1dz2       0.001177 -0.003024 -0.010338  0.001998 -0.000269  0.001138
  1C   1dxz      -0.000247  0.001240  0.006670  0.001921 -0.000437  0.003243
  1C   1dyz      -0.000314  0.000656  0.001654 -0.001121 -0.001672 -0.001166
  1C   1dx2y2     0.000707  0.000632  0.011988  0.010675  0.002224  0.014828
  1C   1dxy       0.000272  0.000080  0.003364  0.003484 -0.007029  0.004766
  2H   1s         0.003144  0.003842  0.095003  0.190264 -0.196752 -0.173426
  2H   2s        -0.004925 -0.006176  0.010634  0.029324 -0.027754 -0.039593
  2H   1pz       -0.000283 -0.000550 -0.003293 -0.002699  0.002808  0.000224
  2H   1px       -0.000255 -0.001156 -0.007748 -0.002463  0.009101 -0.005722
  2H   1py       -0.001801 -0.002481 -0.013505 -0.017059  0.007730  0.010519
  3H   1s         0.003146  0.003843  0.095029  0.190301  0.196743 -0.173509
  3H   2s        -0.004923 -0.006175  0.010752  0.029370  0.027778 -0.039585
  3H   1pz        0.000049 -0.000114 -0.000948  0.000449 -0.001602 -0.001910
  3H   1px       -0.000827 -0.001905 -0.011764 -0.007877 -0.011212 -0.002052
  3H   1py        0.001646  0.002039  0.010663  0.015534  0.004780 -0.011614
  4H   1s         0.003159 -0.003832  0.095039 -0.190300 -0.196762 -0.173507
  4H   2s        -0.004944  0.006158  0.010753 -0.029370 -0.027788 -0.039584
  4H   1pz       -0.000048 -0.000114  0.000948  0.000449 -0.001602  0.001910
  4H   1px        0.000833 -0.001902  0.011765 -0.007876 -0.011213  0.002053
  4H   1py       -0.001653  0.002033 -0.010665  0.015535  0.004781  0.011614
  5H   1s         0.003157 -0.003831  0.095001 -0.190259  0.196769 -0.173431
  5H   2s        -0.004946  0.006159  0.010633 -0.029322  0.027762 -0.039593
  5H   1pz        0.000285 -0.000549  0.003293 -0.002700  0.002809 -0.000224
  5H   1px        0.000259 -0.001155  0.007748 -0.002463  0.009102  0.005722
  5H   1py        0.001810 -0.002475  0.013505 -0.017059  0.007730 -0.010519
                      6         7         8         9        10        11   
                  -0.42796  -0.35835  -0.13413   0.00893   0.01805   0.04725
                   2.00000   2.00000   0.00000   0.00000   0.00000   0.00000
                  --------  --------  --------  --------  --------  --------
  0C   1s        -0.000002  0.000005 -0.000014  0.101170  0.000065  0.127248
  0C   2s        -0.000003 -0.000031  0.000055 -0.282748 -0.000382 -0.317566
  0C   3s        -0.000049  0.000204  0.000006 -1.232769  0.003391 -1.927493
  0C   1pz        0.033297 -0.449969  0.496725 -0.037418  0.029961 -0.022751
  0C   1px       -0.056976  0.089232 -0.098537 -0.172707 -0.051566 -0.105040
  0C   1py        0.345005  0.058188 -0.064243 -0.024935  0.310262 -0.015306
  0C   2pz        0.002282 -0.219400  0.488868 -0.095422  0.055441 -0.006149
  0C   2px       -0.004027  0.043411 -0.096946 -0.439942 -0.098459 -0.027847
  0C   2py        0.024226  0.028277 -0.063280 -0.062569  0.580068 -0.004382
  0C   1dz2       0.000843  0.008420  0.007819 -0.007795 -0.001514 -0.006765
  0C   1dxz       0.001416  0.021403  0.019934 -0.000904 -0.002529  0.003039
  0C   1dyz       0.005340  0.002592  0.002437  0.002650 -0.009593  0.001377
  0C   1dx2y2    -0.007186 -0.004036 -0.003730 -0.014945  0.012836  0.002486
  0C   1dxy       0.022591 -0.003536 -0.003262 -0.004995 -0.040520  0.000597
  1C   1s        -0.000002 -0.000004 -0.000012  0.101167 -0.000057 -0.127251
  1C   2s        -0.000002  0.000028  0.000049 -0.282739  0.000363  0.317577
  1C   3s        -0.000024 -0.000206  0.000002 -1.232777 -0.003492  1.927516
  1C   1pz       -0.033318 -0.449968 -0.496722  0.037419  0.029976 -0.022757
  1C   1px        0.056970  0.089236  0.098538  0.172714 -0.051536 -0.105029
  1C   1py       -0.344983  0.058209  0.064252  0.024906  0.310251 -0.015326
  1C   2pz       -0.002286 -0.219400 -0.488865  0.095421  0.055474 -0.006168
  1C   2px        0.004037  0.043413  0.096949  0.439939 -0.098408 -0.027835
  1C   2py       -0.024212  0.028282  0.063290  0.062503  0.580063 -0.004437
  1C   1dz2       0.000843 -0.008420  0.007819 -0.007795  0.001512  0.006765
  1C   1dxz       0.001415 -0.021403  0.019934 -0.000904  0.002529 -0.003038
  1C   1dyz       0.005340 -0.002593  0.002436  0.002650  0.009594 -0.001378
  1C   1dx2y2    -0.007184  0.004036 -0.003731 -0.014945 -0.012835 -0.002485
  1C   1dxy       0.022592  0.003535 -0.003261 -0.004997  0.040521 -0.000596
  2H   1s         0.276020 -0.000009  0.000037  0.103174 -0.163367  0.110087
  2H   2s         0.118333  0.000067 -0.000035  0.921357 -0.918214  1.036514
  2H   1pz       -0.002471 -0.012761  0.021789  0.000522 -0.003086  0.002565
  2H   1px       -0.007698  0.002525 -0.004322 -0.006853 -0.009985  0.005702
  2H   1py       -0.007293  0.001644 -0.002811  0.014347 -0.008419  0.010936
  3H   1s        -0.275926 -0.000016 -0.000025  0.103433  0.163451  0.109995
  3H   2s        -0.118256 -0.000019 -0.000036  0.922786  0.919443  1.035424
  3H   1pz        0.001311 -0.012760  0.021784 -0.002404  0.001758  0.000637
  3H   1px        0.009725  0.002540 -0.004331 -0.001915  0.012317  0.008990
  3H   1py       -0.004756  0.001658 -0.002815 -0.015579 -0.005190 -0.008750
  4H   1s        -0.275916  0.000028 -0.000028  0.103446 -0.163434 -0.109991
  4H   2s        -0.118254  0.000025 -0.000040  0.922852 -0.919366 -1.035378
  4H   1pz       -0.001311 -0.012761 -0.021783  0.002405  0.001759  0.000636
  4H   1px       -0.009723  0.002541  0.004332  0.001915  0.012317  0.008989
  4H   1py        0.004757  0.001658  0.002815  0.015580 -0.005190 -0.008751
  5H   1s         0.276007 -0.000003  0.000046  0.103165  0.163376 -0.110093
  5H   2s         0.118331 -0.000074 -0.000025  0.921280  0.918279 -1.036593
  5H   1pz        0.002471 -0.012762 -0.021789 -0.000522 -0.003086  0.002566
  5H   1px        0.007698  0.002525  0.004322  0.006854 -0.009985  0.005702
  5H   1py        0.007292  0.001645  0.002812 -0.014346 -0.008420  0.010937
                     12        13        14        15        16        17   
                   0.11508   0.20661   0.28527   0.32181   0.32917   0.36168
                   0.00000   0.00000   0.00000   0.00000   0.00000   0.00000
                  --------  --------  --------  --------  --------  --------
  0C   1s        -0.000026  0.078485  0.064358 -0.000047 -0.062455 -0.000103
  0C   2s        -0.000022 -0.215484 -0.624198  0.000850  0.601069  0.001016
  0C   3s         0.000417 -3.971874  0.444953 -0.005257 -1.476047 -0.005821
  0C   1pz        0.032122  0.074129  0.084170  0.008306  0.005801 -0.641182
  0C   1px       -0.054813  0.342625  0.386640 -0.007268  0.027803  0.126988
  0C   1py        0.332423  0.050394  0.054634  0.038258  0.003976  0.081079
  0C   2pz        0.110881  0.576061 -0.174978 -0.037202 -0.112905  0.623167
  0C   2px       -0.190453  2.653027 -0.806365  0.058413 -0.521331 -0.122348
  0C   2py        1.148990  0.382350 -0.110664 -0.341319 -0.076088 -0.078254
  0C   1dz2       0.000206 -0.003756  0.027942  0.003862 -0.072169  0.018156
  0C   1dxz       0.000325  0.014196 -0.021986  0.006335  0.015697  0.046232
  0C   1dyz       0.001189 -0.002300 -0.003498  0.025305  0.019140  0.005743
  0C   1dx2y2    -0.001631  0.051869 -0.048423 -0.033978 -0.041042 -0.009098
  0C   1dxy       0.005070  0.016219 -0.014278  0.107008 -0.015840 -0.006576
  1C   1s        -0.000021 -0.078486  0.064357  0.000076 -0.062449  0.000103
  1C   2s        -0.000035  0.215496 -0.624176 -0.001125  0.601075 -0.001007
  1C   3s         0.000190  3.971856  0.444747  0.006203 -1.476674  0.005785
  1C   1pz       -0.032128  0.074130 -0.084173  0.008321 -0.005786 -0.641183
  1C   1px        0.054824  0.342623 -0.386665 -0.007155 -0.027847  0.126991
  1C   1py       -0.332427  0.050382 -0.054612  0.038271 -0.003960  0.081097
  1C   2pz       -0.110904  0.576070  0.174951 -0.037340  0.112797  0.623174
  1C   2px        0.190416  2.653049  0.806276  0.057831  0.521067 -0.122338
  1C   2py       -1.149023  0.382342  0.110582 -0.341428  0.075755 -0.078276
  1C   1dz2       0.000207  0.003752  0.027939 -0.003819 -0.072174 -0.018159
  1C   1dxz       0.000324 -0.014196 -0.021986 -0.006341  0.015696 -0.046232
  1C   1dyz       0.001190  0.002302 -0.003503 -0.025319  0.019125 -0.005742
  1C   1dx2y2    -0.001632 -0.051873 -0.048416  0.034015 -0.041015  0.009097
  1C   1dxy       0.005072 -0.016220 -0.014298 -0.106991 -0.015919  0.006576
  2H   1s        -0.045062 -0.143793  0.045598  0.564291  0.506035  0.004955
  2H   2s        -1.366836 -0.178679 -0.130829 -0.357693  0.237337 -0.006070
  2H   1pz       -0.002452  0.002495 -0.007929  0.010065 -0.001109  0.000945
  2H   1px       -0.007190  0.024579 -0.039565  0.051844 -0.017115  0.000219
  2H   1py       -0.007839 -0.018375 -0.000634 -0.001790  0.017935  0.000109
  3H   1s         0.045073 -0.143854  0.046204 -0.563085  0.505139 -0.003688
  3H   2s         1.366220 -0.179784 -0.125235  0.358779  0.237414  0.006796
  3H   1pz        0.001159  0.006631 -0.008897 -0.011805 -0.004932  0.000663
  3H   1px        0.009423  0.017687 -0.038265 -0.048921 -0.010628 -0.000738
  3H   1py       -0.005396  0.024386 -0.010573 -0.016417 -0.021955 -0.000171
  4H   1s         0.045066  0.143904  0.046356  0.562670  0.505584  0.003703
  4H   2s         1.366370  0.179713 -0.125400 -0.358823  0.237158 -0.006790
  4H   1pz       -0.001159  0.006631  0.008894 -0.011814  0.004923  0.000662
  4H   1px       -0.009422  0.017687  0.038252 -0.048945  0.010589 -0.000737
  4H   1py        0.005398  0.024385  0.010567 -0.016435  0.021942 -0.000171
  5H   1s        -0.045048  0.143813  0.045495 -0.564660  0.505632 -0.004938
  5H   2s        -1.366775  0.178689 -0.130747  0.357500  0.237579  0.006080
  5H   1pz        0.002452  0.002494  0.007931  0.010061  0.001117  0.000945
  5H   1px        0.007189  0.024580  0.039577  0.051820  0.017151  0.000219
  5H   1py        0.007839 -0.018376  0.000633 -0.001777 -0.017936  0.000108
                     18        19        20        21        22        23   
                   0.41937   0.44200   0.51603   0.53500   0.54269   0.56032
                   0.00000   0.00000   0.00000   0.00000   0.00000   0.00000
                  --------  --------  --------  --------  --------  --------
  0C   1s         0.077448  0.000037 -0.163398 -0.000467 -0.003045 -0.183778
  0C   2s        -0.017996 -0.000367  0.998002  0.002605  0.021072  1.361842
  0C   3s        -1.823497  0.000292 -2.255133 -0.006750 -0.094677 -5.079410
  0C   1pz        0.051582 -0.676256  0.079667  0.064017  0.060197  0.064332
  0C   1px        0.234915  0.134654  0.367894 -0.110122 -0.108473  0.300069
  0C   1py        0.034700  0.085668  0.050894  0.677480  0.647817  0.035753
  0C   2pz        0.074000  1.174073 -0.140569 -0.179986 -0.124678  0.002106
  0C   2px        0.343964 -0.234215 -0.650711  0.308891  0.242994  0.001068
  0C   2py        0.048455 -0.145198 -0.087323 -1.888908 -1.352200  0.016134
  0C   1dz2      -0.084880 -0.001709  0.045521 -0.001911 -0.002420  0.020704
  0C   1dxz       0.026133 -0.004609 -0.004821 -0.003739 -0.005389 -0.001389
  0C   1dyz       0.020451 -0.000684 -0.013152 -0.013935 -0.019979 -0.005933
  0C   1dx2y2    -0.017062  0.000793  0.046468  0.018602  0.026206  0.024218
  0C   1dxy      -0.009083  0.000839  0.016612 -0.058734 -0.084526  0.009336
  1C   1s        -0.077443  0.000034 -0.163394 -0.000477  0.003049  0.183785
  1C   2s         0.017963 -0.000355  0.997945  0.002742 -0.021085 -1.361893
  1C   3s         1.823473  0.000307 -2.254764 -0.007362  0.094720  5.079492
  1C   1pz        0.051557  0.676251 -0.079667 -0.064034  0.060229  0.064334
  1C   1px        0.234915 -0.134651 -0.367874  0.110020 -0.108475  0.300085
  1C   1py        0.034644 -0.085679 -0.050864 -0.677343  0.647970  0.035669
  1C   2pz        0.074050 -1.174069  0.140593  0.179990 -0.124774  0.002110
  1C   2px        0.344010  0.234218  0.650784 -0.308823  0.242997  0.001061
  1C   2py        0.048677  0.145210  0.087292  1.888613 -1.352641  0.016420
  1C   1dz2       0.084876 -0.001707  0.045523 -0.001922  0.002418 -0.020707
  1C   1dxz      -0.026133 -0.004610 -0.004823 -0.003738  0.005392  0.001388
  1C   1dyz      -0.020456 -0.000684 -0.013155 -0.013931  0.019982  0.005933
  1C   1dx2y2     0.017059  0.000795  0.046469  0.018594 -0.026206 -0.024225
  1C   1dxy       0.009075  0.000837  0.016616 -0.058720  0.084541 -0.009342
  2H   1s         0.617589  0.000176 -0.382453 -0.304712 -0.138708 -0.139053
  2H   2s        -0.196864 -0.004121  1.147599  1.426145  1.213427  1.443896
  2H   1pz        0.004130 -0.003540 -0.011685 -0.023183 -0.011389 -0.012677
  2H   1px       -0.002847  0.000827 -0.008167 -0.069869 -0.003780 -0.022338
  2H   1py        0.036481  0.000584 -0.077659 -0.071882 -0.082488 -0.063382
  3H   1s         0.619193 -0.000496 -0.384279  0.302352  0.136135 -0.141809
  3H   2s        -0.200487  0.004240  1.157179 -1.418918 -1.179782  1.471102
  3H   1pz       -0.002752 -0.003691  0.002670  0.011472 -0.004163 -0.001139
  3H   1px        0.009341  0.000462 -0.033566  0.089373  0.028689 -0.042366
  3H   1py       -0.035713  0.000542  0.071991 -0.048468 -0.076934  0.055973
  4H   1s        -0.619122 -0.000505 -0.384304  0.302368 -0.136197  0.141865
  4H   2s         0.200326  0.004238  1.157156 -1.418544  1.180104 -1.471343
  4H   1pz       -0.002755  0.003695 -0.002672 -0.011472 -0.004163 -0.001140
  4H   1px        0.009339 -0.000464  0.033564 -0.089366  0.028706 -0.042373
  4H   1py       -0.035709 -0.000543 -0.071991  0.048453 -0.076949  0.055984
  5H   1s        -0.617566  0.000156 -0.382455 -0.304649  0.138792  0.139052
  5H   2s         0.197004 -0.004108  1.147537  1.425995 -1.213800 -1.443743
  5H   1pz        0.004132  0.003539  0.011688  0.023185 -0.011396 -0.012676
  5H   1px       -0.002834 -0.000828  0.008166  0.069872 -0.003796 -0.022331
  5H   1py        0.036482 -0.000583  0.077655  0.071866 -0.082507 -0.063377
                     24        25        26        27        28        29   
                   0.62805   0.95218   1.01310   1.08199   1.10502   1.40099
                   0.00000   0.00000   0.00000   0.00000   0.00000   0.00000
                  --------  --------  --------  --------  --------  --------
  0C   1s        -0.122991 -0.000021  0.000015 -0.000053  0.000078 -0.000085
  0C   2s         0.822498  0.000197 -0.000036  0.000319 -0.000488  0.000721
  0C   3s        -6.380530 -0.000163  0.000119 -0.001102  0.001722  0.001198
  0C   1pz       -0.159211 -0.017879 -0.000066  0.000398 -0.088503  0.007965
  0C   1px       -0.733064  0.031042 -0.000058 -0.000285  0.017989 -0.014665
  0C   1py       -0.110156 -0.188710 -0.000117 -0.000063  0.011610  0.085023
  0C   2pz        0.720533  0.315519  0.000319 -0.000410  0.125653 -0.195151
  0C   2px        3.316145 -0.542318 -0.000191  0.000560 -0.025580  0.338702
  0C   2py        0.488270  3.275201  0.001579  0.000304 -0.016477 -2.029736
  0C   1dz2       0.017529 -0.004403  0.057262 -0.045402 -0.161352 -0.002862
  0C   1dxz      -0.033422 -0.006745 -0.063367  0.052492 -0.410408 -0.005014
  0C   1dyz       0.002822 -0.026651  0.337423 -0.271045 -0.050997 -0.018053
  0C   1dx2y2    -0.108975  0.035824  0.055396 -0.044838  0.076754  0.023149
  0C   1dxy      -0.033280 -0.111729 -0.060593  0.048416  0.067883 -0.077037
  1C   1s         0.122991 -0.000014  0.000016  0.000052 -0.000078 -0.000094
  1C   2s        -0.822507  0.000175 -0.000048 -0.000314  0.000489  0.000778
  1C   3s         6.380543 -0.000894  0.000171  0.001082 -0.001740  0.001553
  1C   1pz       -0.159211  0.017892  0.000057  0.000390 -0.088499 -0.007965
  1C   1px       -0.733069 -0.031048  0.000060 -0.000288  0.017985  0.014703
  1C   1py       -0.110138  0.188714  0.000122 -0.000044  0.011624 -0.085065
  1C   2pz        0.720536 -0.315665 -0.000317 -0.000424  0.125618  0.195250
  1C   2px        3.316158  0.541877  0.000190  0.000608 -0.025525 -0.338486
  1C   2py        0.488280 -3.275348 -0.001581  0.000049 -0.016712  2.030024
  1C   1dz2      -0.017530 -0.004428  0.057281  0.045411  0.161352 -0.002866
  1C   1dxz       0.033423 -0.006770 -0.063352 -0.052484  0.410407 -0.005027
  1C   1dyz      -0.002824 -0.026680  0.337442  0.271010  0.050970 -0.018080
  1C   1dx2y2     0.108974  0.035821  0.055403  0.044845 -0.076748  0.023177
  1C   1dxy       0.033279 -0.111738 -0.060605 -0.048425 -0.067892 -0.077104
  2H   1s         0.143137 -0.747479 -0.000278 -0.000130 -0.000056  0.503300
  2H   2s        -0.060054 -1.075872 -0.000601  0.000021  0.000024  0.659893
  2H   1pz       -0.004174 -0.018267  0.323872 -0.373861 -0.266217 -0.042931
  2H   1px       -0.040581 -0.129113 -0.064389  0.074170  0.052854 -0.390577
  2H   1py        0.030110  0.057629 -0.041872  0.048387  0.034423  0.267618
  3H   1s         0.141634  0.747906  0.000381  0.000038 -0.000034 -0.504906
  3H   2s        -0.044977  1.076023  0.000461  0.000116 -0.000260 -0.660827
  3H   1pz       -0.010881  0.032843 -0.323895  0.375824 -0.263166  0.103302
  3H   1px       -0.028960  0.105028  0.064314 -0.074554  0.052130  0.283092
  3H   1py       -0.038857  0.091695  0.041918 -0.048607  0.033919  0.364360
  4H   1s        -0.141634  0.747923  0.000376  0.000019  0.000090 -0.504998
  4H   2s         0.044951  1.076073  0.000450 -0.000021  0.000346 -0.660941
  4H   1pz       -0.010884 -0.032856  0.323920  0.375793 -0.263170 -0.103355
  4H   1px       -0.028969 -0.105023 -0.064324 -0.074573  0.052110 -0.283200
  4H   1py       -0.038858 -0.091684 -0.041928 -0.048625  0.033906 -0.364468
  5H   1s        -0.143120 -0.747508 -0.000277  0.000078  0.000007  0.503431
  5H   2s         0.060055 -1.075909 -0.000619 -0.000100 -0.000096  0.659981
  5H   1pz       -0.004174  0.018314 -0.323904 -0.373822 -0.266200  0.042944
  5H   1px       -0.040578  0.129105  0.064402  0.074188  0.052864  0.390618
  5H   1py        0.030107 -0.057637  0.041883  0.048381  0.034424 -0.267720
                     30        31        32        33        34        35   
                   1.46309   1.47018   1.56229   1.58203   1.61289   1.64881
                   0.00000   0.00000   0.00000   0.00000   0.00000   0.00000
                  --------  --------  --------  --------  --------  --------
  0C   1s         0.000124 -0.005738  0.000076 -0.074757  0.000236 -0.067390
  0C   2s        -0.000825  0.034702 -0.000686  0.482859 -0.001497  0.620828
  0C   3s         0.000878  0.519821  0.000454  1.786659 -0.006887 -0.261587
  0C   1pz        0.013875 -0.038286 -0.126761 -0.034865  0.001126 -0.021675
  0C   1px       -0.023603 -0.176521  0.025140 -0.160659 -0.001771 -0.099592
  0C   1py        0.145004 -0.026245  0.016403 -0.023002  0.011869 -0.014840
  0C   2pz       -0.054847  0.152342 -0.573775 -0.323380  0.024872  0.084798
  0C   2px        0.095755  0.694161  0.114123 -1.489735 -0.035005  0.390949
  0C   2py       -0.572184  0.110062  0.074222 -0.215185  0.247447  0.061916
  0C   1dz2      -0.009528 -0.237970  0.061413  0.188376 -0.014382  0.498563
  0C   1dxz      -0.016131  0.010414  0.158481 -0.017750 -0.022763 -0.216807
  0C   1dyz      -0.060743  0.073090  0.019342 -0.055860 -0.086062 -0.104392
  0C   1dx2y2     0.081308 -0.301884 -0.029710  0.201995  0.115214 -0.152840
  0C   1dxy      -0.257006 -0.104504 -0.026128  0.069805 -0.364962 -0.028745
  1C   1s        -0.000125 -0.005737  0.000057  0.074762 -0.000271 -0.067382
  1C   2s         0.000831  0.034695 -0.000559 -0.482909  0.001829  0.620777
  1C   3s        -0.000223  0.519970  0.000780 -1.786667  0.006670 -0.261661
  1C   1pz        0.013922  0.038265  0.126774 -0.034837  0.001146  0.021688
  1C   1px       -0.023382  0.176540 -0.025106 -0.160688 -0.001733  0.099588
  1C   1py        0.144998  0.026050 -0.016400 -0.023022  0.011867  0.014849
  1C   2pz       -0.054996 -0.152252  0.573851 -0.323204  0.024865 -0.084820
  1C   2px        0.094805 -0.694167 -0.113791 -1.489758 -0.035093 -0.390965
  1C   2py       -0.571727 -0.109327 -0.074187 -0.214869  0.247200 -0.062157
  1C   1dz2       0.009203 -0.237967  0.061463 -0.188402  0.014702  0.498514
  1C   1dxz       0.016161  0.010407  0.158476  0.017803  0.022646 -0.216841
  1C   1dyz       0.060837  0.073038  0.019315  0.055890  0.085996 -0.104438
  1C   1dx2y2    -0.081650 -0.301792 -0.029654 -0.201979 -0.115238 -0.152800
  1C   1dxy       0.256865 -0.104756 -0.026135 -0.069803  0.364951 -0.028926
  2H   1s         0.294943 -0.264325 -0.000207  0.168675  0.107375  0.034881
  2H   2s         0.164083 -0.150127 -0.000092  0.050100 -0.290654 -0.030891
  2H   1pz       -0.009102 -0.075413  0.521891  0.096584  0.089768 -0.002023
  2H   1px       -0.263811 -0.353195 -0.103759  0.460314  0.434166 -0.155011
  2H   1py        0.334586 -0.038398 -0.067764  0.041095  0.025891  0.221388
  3H   1s        -0.295448 -0.259848 -0.000246  0.167536 -0.108593  0.037047
  3H   2s        -0.164894 -0.143628 -0.000077  0.051549  0.290218 -0.027252
  3H   1pz        0.079125 -0.078491  0.521752  0.100857 -0.096712 -0.047079
  3H   1px        0.142139 -0.350973 -0.103755  0.449237 -0.425464 -0.076780
  3H   1py        0.392964 -0.065907 -0.067282  0.090683 -0.098515 -0.255828
  4H   1s         0.294990 -0.260173 -0.000208 -0.167597  0.108685  0.037014
  4H   2s         0.164539 -0.143832 -0.000040 -0.051638 -0.290115 -0.027020
  4H   1pz        0.079201  0.078388 -0.521772  0.100705 -0.096736  0.047114
  4H   1px        0.142493  0.350772  0.103677  0.449240 -0.425439  0.077099
  4H   1py        0.392891  0.065390  0.067274  0.090628 -0.098355  0.255903
  5H   1s        -0.295122 -0.263988 -0.000147 -0.168605 -0.107363  0.034893
  5H   2s        -0.164090 -0.149892 -0.000082 -0.049981  0.290572 -0.031085
  5H   1pz       -0.008999  0.075425 -0.521942  0.096466  0.089725  0.001945
  5H   1px       -0.263270  0.353573  0.103626  0.460363  0.434201  0.154772
  5H   1py        0.334565  0.037981  0.067768  0.041100  0.025754 -0.221354
                     36        37        38        39        40        41   
                   1.74164   1.90593   1.98568   2.06734   2.17197   2.21203
                   0.00000   0.00000   0.00000   0.00000   0.00000   0.00000
                  --------  --------  --------  --------  --------  --------
  0C   1s         0.000030 -0.000121 -0.020225  0.000005  0.021753  0.000203
  0C   2s        -0.000062  0.000913  0.330411  0.000013 -0.082999 -0.001395
  0C   3s        -0.001267 -0.000170 -3.413445 -0.000125 -0.559370  0.003154
  0C   1pz       -0.180728  0.000104  0.107015  0.068754 -0.068374 -0.000159
  0C   1px        0.036287  0.000050  0.492496 -0.118170 -0.315724 -0.000057
  0C   1py        0.023292  0.000131  0.070798  0.712619 -0.046047 -0.000583
  0C   2pz       -0.151423 -0.000037  0.431600  0.053856 -0.058218 -0.000305
  0C   2px        0.030795  0.000471  1.987948 -0.091993 -0.268477 -0.001789
  0C   2py        0.019567 -0.000208  0.288051  0.557086 -0.038819 -0.000413
  0C   1dz2      -0.161153 -0.103807  0.401945 -0.005806  0.170070  0.122449
  0C   1dxz      -0.411295  0.115607 -0.160479 -0.009946 -0.179371 -0.134943
  0C   1dyz      -0.049987 -0.616626 -0.087407 -0.036964 -0.010963  0.721719
  0C   1dx2y2     0.076921 -0.101340 -0.067019  0.049403 -0.469773  0.118198
  0C   1dxy       0.067971  0.110629 -0.005727 -0.156401 -0.141778 -0.129796
  1C   1s        -0.000034 -0.000119  0.020227  0.000008  0.021760 -0.000208
  1C   2s         0.000103  0.000918 -0.330447 -0.000046 -0.083040  0.001425
  1C   3s         0.001255 -0.000425  3.413461  0.000254 -0.559715 -0.003134
  1C   1pz       -0.180728 -0.000119  0.107029 -0.068767  0.068368 -0.000149
  1C   1px        0.036296 -0.000075  0.492492  0.118164  0.315694 -0.000084
  1C   1py        0.023301 -0.000142  0.070847 -0.712620  0.046003 -0.000551
  1C   2pz       -0.151410 -0.000006  0.431619 -0.053827  0.058181 -0.000297
  1C   2px        0.030763 -0.000614  1.987947  0.092175  0.268286 -0.001808
  1C   2py        0.019570  0.000196  0.288119 -0.557069  0.038791 -0.000359
  1C   1dz2       0.161206 -0.103791 -0.401960 -0.005860  0.170117 -0.122408
  1C   1dxz       0.411296  0.115601  0.160512 -0.009917 -0.179401  0.135152
  1C   1dyz       0.049994 -0.616588  0.087390 -0.036991 -0.010978 -0.721727
  1C   1dx2y2    -0.076937 -0.101353  0.066996  0.049407 -0.469815 -0.118258
  1C   1dxy      -0.067981  0.110627  0.005727 -0.156440 -0.141741  0.129782
  2H   1s         0.000039 -0.000074 -0.033469 -0.240148  0.110547  0.000605
  2H   2s         0.000102  0.000035 -0.183109 -0.475617  0.271849  0.000332
  2H   1pz        0.475120  0.424607  0.016209  0.138973  0.018690 -0.390588
  2H   1px       -0.094551 -0.084548 -0.222816  0.388457  0.346022  0.077498
  2H   1py       -0.061464 -0.054403  0.471528  0.478505 -0.391927  0.049317
  3H   1s         0.000038  0.000016 -0.033549  0.240107  0.110430 -0.000048
  3H   2s        -0.000270 -0.000189 -0.182299  0.475581  0.271632  0.000058
  3H   1pz        0.475496 -0.425085 -0.078122 -0.059239  0.101703  0.390395
  3H   1px       -0.093952  0.084089 -0.060350 -0.524938  0.203618 -0.077130
  3H   1py       -0.061719  0.054586 -0.513059  0.346637  0.470970 -0.050042
  4H   1s        -0.000038  0.000018  0.033503  0.240099  0.110435  0.000011
  4H   2s         0.000261 -0.000198  0.182253  0.475598  0.271641 -0.000102
  4H   1pz        0.475469  0.425102 -0.078115  0.059253 -0.101704  0.390490
  4H   1px       -0.093952 -0.084082 -0.060426  0.524912 -0.203624 -0.077193
  4H   1py       -0.061703 -0.054574 -0.513045 -0.346692 -0.470976 -0.050019
  5H   1s        -0.000041 -0.000071  0.033492 -0.240149  0.110542 -0.000598
  5H   2s        -0.000100  0.000031  0.183167 -0.475613  0.271856 -0.000313
  5H   1pz        0.475140 -0.424556  0.016209 -0.139005 -0.018691 -0.390544
  5H   1px       -0.094543  0.084570 -0.222803 -0.388489 -0.346002  0.077511
  5H   1py       -0.061489  0.054381  0.471603 -0.478461  0.391916  0.049317
                     42        43        44        45        46        47   
                   2.25978   2.53028   2.56971   2.57437   2.88896   3.08437
                   0.00000   0.00000   0.00000   0.00000   0.00000   0.00000
                  --------  --------  --------  --------  --------  --------
  0C   1s         0.000076 -0.143322 -0.175266 -0.001723 -0.089291 -0.000002
  0C   2s        -0.000282  0.938876  0.992887  0.009685  0.472587 -0.000011
  0C   3s        -0.001468  0.458754  1.151093  0.012372  1.615929 -0.000262
  0C   1pz       -0.087349  0.098760 -0.086914 -0.086400  0.139719  0.048903
  0C   1px        0.016273  0.455341 -0.405685  0.142174  0.643711 -0.083836
  0C   1py        0.011372  0.065586 -0.049302 -0.886123  0.093004  0.506660
  0C   2pz       -0.057844  0.035753 -0.048748 -0.050142 -0.044669  0.070184
  0C   2px        0.010898  0.165001 -0.227499  0.082293 -0.205885 -0.120486
  0C   2py        0.007896  0.023462 -0.027794 -0.513964 -0.029870  0.726809
  0C   1dz2       0.321167 -0.481799 -0.639714 -0.032437 -0.480196  0.042035
  0C   1dxz       0.814830  0.046571  0.391127 -0.039267 -0.034730  0.069933
  0C   1dyz       0.099523  0.141770  0.109104 -0.164924  0.161313  0.267784
  0C   1dx2y2    -0.154104 -0.511065  0.650507  0.229102 -0.835976 -0.359288
  0C   1dxy      -0.134674 -0.181141  0.188629 -0.697481 -0.283865  1.131078
  1C   1s         0.000078 -0.143343  0.175241  0.001795  0.089312 -0.000020
  1C   2s        -0.000292  0.939028 -0.992740 -0.010182 -0.472740  0.000066
  1C   3s        -0.001598  0.458689 -1.150969 -0.012576 -1.615983 -0.000104
  1C   1pz        0.087350 -0.098779 -0.086935 -0.086376  0.139730 -0.048917
  1C   1px       -0.016300 -0.455129 -0.405775  0.142381  0.643782  0.083821
  1C   1py       -0.011357 -0.065968 -0.049349 -0.886157  0.092903 -0.506652
  1C   2pz        0.057833 -0.035777 -0.048765 -0.050144 -0.044671 -0.070189
  1C   2px       -0.010980 -0.164952 -0.227551  0.082352 -0.205869  0.120484
  1C   2py       -0.007890 -0.023691 -0.027861 -0.513980 -0.029957 -0.726789
  1C   1dz2       0.321215 -0.481817  0.639617  0.032696  0.480265  0.041972
  1C   1dxz       0.814773  0.046650 -0.391120  0.039286  0.034728  0.069971
  1C   1dyz       0.099686  0.141903 -0.109075  0.164874 -0.161349  0.267809
  1C   1dx2y2    -0.154081 -0.511005 -0.650569 -0.228787  0.836061 -0.359252
  1C   1dxy      -0.134721 -0.180722 -0.188588  0.697600  0.283937  1.131057
  2H   1s         0.000180 -0.612619 -0.280241  0.671909 -0.645387 -0.711265
  2H   2s         0.000470 -0.218991 -0.222144  0.375975 -0.309666 -0.273906
  2H   1pz       -0.210209  0.158267  0.036898 -0.148038  0.153716  0.083922
  2H   1px        0.042348  0.376333 -0.082298 -0.291636  0.432490  0.036579
  2H   1py        0.026395  0.646681  0.412945 -0.698129  0.525297  0.592493
  3H   1s         0.000752 -0.613100 -0.266587 -0.677034 -0.645537  0.711416
  3H   2s         0.000924 -0.219389 -0.214773 -0.380246 -0.309819  0.274055
  3H   1pz       -0.209816  0.046629 -0.043110  0.023360  0.066557  0.026898
  3H   1px        0.041661  0.568225  0.044851  0.504430  0.582313 -0.226552
  3H   1py        0.028541 -0.510395 -0.404866 -0.590903 -0.378566  0.554485
  4H   1s         0.000739 -0.612781  0.266505  0.677398  0.645735  0.711347
  4H   2s         0.000906 -0.219194  0.214746  0.380357  0.309878  0.274008
  4H   1pz        0.209696 -0.046604 -0.043123  0.023372  0.066552 -0.026924
  4H   1px       -0.041647 -0.567901  0.044763  0.504692  0.582403  0.226426
  4H   1py       -0.028505  0.510174 -0.404778 -0.591215 -0.378733 -0.554461
  5H   1s         0.000190 -0.612919  0.280097 -0.671623  0.645415 -0.711304
  5H   2s         0.000480 -0.219159  0.222063 -0.375897  0.309643 -0.273922
  5H   1pz        0.210302 -0.158339  0.036883 -0.147979  0.153750 -0.083951
  5H   1px       -0.042343 -0.376418 -0.082337 -0.291452  0.432536 -0.036598
  5H   1py       -0.026407 -0.647027  0.412794 -0.697838  0.525311 -0.592522
             **** ENERGY FILE WAS UPDATED (eten.en.tmp) ****
Finished Guess after   0.0 sec
Maximum memory used throughout the entire GUESS-calculation: 5.9 MB

-------------------------------------------------------------------------------------------
                                      ORCA LEAN-SCF
                              memory conserving SCF solver
-------------------------------------------------------------------------------------------

----------------------------------------D-I-I-S--------------------------------------------
Iteration    Energy (Eh)           Delta-E    RMSDP     MaxDP     DIISErr   Damp  Time(sec)
-------------------------------------------------------------------------------------------
               ***  Starting incremental Fock matrix formation  ***
    1    -78.3979703163701060     0.00e+00  5.28e-03  6.23e-02  1.57e-01  0.700   0.1

                         ----------------------------
                         !        ITERATION     0   !
                         ----------------------------
   Total Energy        :     -78.397970316370 Eh
   Energy Change       :      78.397970316370 Eh
   MAX-DP              :       0.062257028739
   RMS-DP              :       0.005279256125
   Actual Damping      :       0.7000
   Actual Level Shift  :       0.2500 Eh
   alpha HOMO          :      -0.1586 Eh
   alpha LUMO          :       0.3506 Eh
   Int. Num. El.       :    16.00000492 (UP=    8.00000246 DN=    8.00000246)
   Exchange            :    -9.48382475 Eh
   Correlation         :    -0.60104543 Eh
   DIIS-Error          :       0.157318754433

    2    -78.4319020392223649    -3.39e-02  3.85e-03  4.05e-02  8.67e-02  0.700   0.1

                         ----------------------------
                         !        ITERATION     1   !
                         ----------------------------
   Total Energy        :     -78.431902039222 Eh
   Energy Change       :       0.033931722852 Eh
   MAX-DP              :       0.040537016621
   RMS-DP              :       0.003846951385
   Actual Damping      :       0.7000
   Actual Level Shift  :       0.2500 Eh
   alpha HOMO          :      -0.2118 Eh
   alpha LUMO          :       0.3113 Eh
   Int. Num. El.       :    16.00000577 (UP=    8.00000289 DN=    8.00000289)
   Exchange            :    -9.39699510 Eh
   Correlation         :    -0.59667870 Eh
   DIIS-Error          :       0.086661488939

                               ***Turning on AO-DIIS***
    3    -78.4466925469650675    -1.48e-02  1.53e-03  1.26e-02  3.65e-02  0.700   0.1

                         ----------------------------
                         !        ITERATION     2   !
                         ----------------------------
   Total Energy        :     -78.446692546965 Eh
   Energy Change       :       0.014790507743 Eh
   MAX-DP              :       0.012581850984
   RMS-DP              :       0.001531311877
   Actual Damping      :       0.7000
   Actual Level Shift  :       0.2500 Eh
   alpha HOMO          :      -0.2699 Eh
   alpha LUMO          :       0.2626 Eh
   Int. Num. El.       :    16.00000646 (UP=    8.00000323 DN=    8.00000323)
   Exchange            :    -9.33541924 Eh
   Correlation         :    -0.59349978 Eh
   DIIS-Error          :       0.036544822601
   DIIS coefficients:
     -0.14583  -0.25000   1.39582

    4    -78.4550343038180245    -8.34e-03  2.52e-03  1.85e-02  1.94e-02  0.000   0.1

                         ----------------------------
                         !        ITERATION     3   !
                         ----------------------------
   Total Energy        :     -78.455034303818 Eh
   Energy Change       :       0.008341756853 Eh
   MAX-DP              :       0.018497734853
   RMS-DP              :       0.002515750959
   Actual Damping      :       0.0000
   Actual Level Shift  :       0.2500 Eh
   alpha HOMO          :      -0.2719 Eh
   alpha LUMO          :       0.2607 Eh
   Int. Num. El.       :    16.00000672 (UP=    8.00000336 DN=    8.00000336)
   Exchange            :    -9.31353042 Eh
   Correlation         :    -0.59240708 Eh
   DIIS-Error          :       0.019382102297
   DIIS coefficients:
     -0.02631  -0.09289  -0.36546   1.48466

    5    -78.4727052835148697    -1.77e-02  4.30e-04  2.99e-03  5.50e-03  0.000   0.1

                         ----------------------------
                         !        ITERATION     4   !
                         ----------------------------
   Total Energy        :     -78.472705283515 Eh
   Energy Change       :       0.017670979697 Eh
   MAX-DP              :       0.002987022479
   RMS-DP              :       0.000429786138
   Actual Damping      :       0.0000
   Actual Level Shift  :       0.2500 Eh
   alpha HOMO          :      -0.2728 Eh
   alpha LUMO          :       0.2596 Eh
   Int. Num. El.       :    16.00000712 (UP=    8.00000356 DN=    8.00000356)
   Exchange            :    -9.28123754 Eh
   Correlation         :    -0.59087256 Eh
   DIIS-Error          :       0.005504168556
   DIIS coefficients:
      0.01082   0.02090   0.03520   0.02880   0.90428

                              *** Initializing SOSCF ***
---------------------------------------S-O-S-C-F--------------------------------------
Iteration    Energy (Eh)           Delta-E    RMSDP     MaxDP     MaxGrad    Time(sec)
--------------------------------------------------------------------------------------
    6    -78.4728066675041589    -1.01e-04  1.54e-04  1.10e-03  1.33e-03     0.1

                         ----------------------------
                         !        ITERATION     5   !
                         ----------------------------
   Total Energy        :     -78.472806667504 Eh
   Energy Change       :       0.000101383989 Eh
   MAX-DP              :       0.001098415604
   RMS-DP              :       0.000153691590
   Orbital gradient    :       0.001326034826
   Orbital Rotation    :       0.001326034826
   alpha HOMO          :      -0.2737 Eh
   alpha LUMO          :       0.0089 Eh
   Int. Num. El.       :    16.00000705 (UP=    8.00000353 DN=    8.00000353)
   Exchange            :    -9.28675504 Eh
   Correlation         :    -0.59116580 Eh

               *** Restarting incremental Fock matrix formation ***
    7    -78.4728188988060822    -1.22e-05  9.72e-05  6.95e-04  2.40e-04     0.1

                         ----------------------------
                         !        ITERATION     6   !
                         ----------------------------
   Total Energy        :     -78.472818898806 Eh
   Energy Change       :       0.000012231302 Eh
   MAX-DP              :       0.000694820056
   RMS-DP              :       0.000097160465
   Orbital gradient    :       0.000240040866
   Orbital Rotation    :       0.000447796143
   alpha HOMO          :      -0.2737 Eh
   alpha LUMO          :       0.0089 Eh
   Int. Num. El.       :    16.00000703 (UP=    8.00000352 DN=    8.00000352)
   Exchange            :    -9.28811215 Eh
   Correlation         :    -0.59123981 Eh

    8    -78.4728190863755799    -1.88e-07  2.46e-05  2.90e-04  2.30e-04     0.1

                         ----------------------------
                         !        ITERATION     7   !
                         ----------------------------
   Total Energy        :     -78.472819086376 Eh
   Energy Change       :       0.000000187569 Eh
   MAX-DP              :       0.000290370375
   RMS-DP              :       0.000024620563
   Orbital gradient    :       0.000230331166
   Orbital Rotation    :       0.000151608814
   alpha HOMO          :      -0.2737 Eh
   alpha LUMO          :       0.0089 Eh
   Int. Num. El.       :    16.00000702 (UP=    8.00000351 DN=    8.00000351)
   Exchange            :    -9.28893505 Eh
   Correlation         :    -0.59128594 Eh

    9    -78.4728194224580875    -3.36e-07  2.67e-06  1.82e-05  1.14e-05     0.1

                         ----------------------------
                         !        ITERATION     8   !
                         ----------------------------
   Total Energy        :     -78.472819422458 Eh
   Energy Change       :       0.000000336083 Eh
   MAX-DP              :       0.000018247353
   RMS-DP              :       0.000002667376
   Orbital gradient    :       0.000011428236
   Orbital Rotation    :       0.000012155239
   alpha HOMO          :      -0.2737 Eh
   alpha LUMO          :       0.0089 Eh
   Int. Num. El.       :    16.00000702 (UP=    8.00000351 DN=    8.00000351)
   Exchange            :    -9.28855520 Eh
   Correlation         :    -0.59126441 Eh

   10    -78.4728194225295965    -7.15e-11  5.29e-07  2.73e-06  3.97e-06     0.1
                 **** Energy Check signals convergence ****

                         ----------------------------
                         !        ITERATION     9   !
                         ----------------------------
   Total Energy        :     -78.472819422530 Eh
   Energy Change       :       0.000000000072 Eh
   MAX-DP              :       0.000002728779
   RMS-DP              :       0.000000529398
   Orbital gradient    :       0.000003966574
   Orbital Rotation    :       0.000003280100
   alpha HOMO          :      -0.2737 Eh
   alpha LUMO          :       0.0089 Eh
   Int. Num. El.       :    16.00000702 (UP=    8.00000351 DN=    8.00000351)
   Exchange            :    -9.28854537 Eh
   Correlation         :    -0.59126425 Eh


               *****************************************************
               *                     SUCCESS                       *
               *           SCF CONVERGED AFTER  10 CYCLES          *
               *****************************************************

Recomputing exchange energy using gridx3       ... done (    0.114 sec)
Old exchange energy                            :     -2.343973664 Eh
New exchange energy                            :     -2.343995429 Eh
Exchange energy change after final integration :     -0.000021764 Eh
Total energy after final integration           :    -78.472841187 Eh
             **** ENERGY FILE WAS UPDATED (eten.en.tmp) ****

----------------
TOTAL SCF ENERGY
----------------

[...]
 0 C  dx2y2           0.5      10.5       0.1       3.2       1.7       1.0
 0 C  dxy             5.0       1.2       0.1       0.4      17.0       0.0
 1 C  s               0.0       0.4       0.0       4.0       0.0       4.2
 1 C  pz              0.0       0.3       5.0       0.2       0.0       0.1
 1 C  px              0.1       6.4       0.2       4.1       0.0       1.6
 1 C  py              3.9       0.1       0.1       0.1       0.3       0.0
 1 C  dz2             0.0       4.0       0.4       7.0       0.0      26.1
 1 C  dxz             0.0       0.0       2.4       0.3       0.1       4.3
 1 C  dyz             0.3       0.4       0.0       0.5       1.0       1.2
 1 C  dx2y2           0.5      10.5       0.1       3.2       1.7       1.0
 1 C  dxy             5.0       1.2       0.1       0.4      17.0       0.0
 2 H  s               1.1       0.9       0.0       0.7       0.7       0.2
 2 H  pz              0.0       0.6      19.7       0.6       0.7       0.0
 2 H  px              7.0      11.5       0.8      13.6      12.5       1.2
 2 H  py             12.0       0.4       0.3       0.3       1.1       4.4
 3 H  s               1.1       0.9       0.0       0.7       0.7       0.2
 3 H  pz              0.6       0.5      19.7       0.6       0.5       0.1
 3 H  px              1.9      11.7       0.8      13.5      13.7       0.1
 3 H  py             16.4       0.1       0.3       0.3       0.0       5.3
 4 H  s               1.1       0.9       0.0       0.7       0.7       0.2
 4 H  pz              0.6       0.5      19.7       0.6       0.5       0.1
 4 H  px              1.9      11.7       0.8      13.5      13.7       0.1
 4 H  py             16.4       0.1       0.3       0.3       0.0       5.3
 5 H  s               1.1       0.9       0.0       0.7       0.7       0.2
 5 H  pz              0.0       0.6      19.7       0.6       0.7       0.0
 5 H  px              7.0      11.5       0.8      13.6      12.5       1.2
 5 H  py             12.0       0.4       0.3       0.3       1.1       4.4

                     36        37        38        39        40        41   
                   1.91580   2.06590   2.15370   2.21946   2.37120   2.37973
                   0.00000   0.00000   0.00000   0.00000   0.00000   0.00000
                  --------  --------  --------  --------  --------  --------
 0 C  s               0.0       0.0       3.2       0.0       0.7       0.0
 0 C  pz              1.8       0.0       0.4       0.1       0.1       0.0
 0 C  px              0.1       0.0       7.5       0.2       2.5       0.0
 0 C  py              0.0       0.0       0.2       8.9       0.1       0.0
 0 C  dz2             2.5       0.8      11.6       0.0       1.7       0.9
 0 C  dxz            15.9       0.9       1.2       0.0       2.5       1.1
 0 C  dyz             0.2      27.0       0.7       0.4       0.0      32.4
 0 C  dx2y2           0.6       0.7       0.3       0.7      19.8       0.9
 0 C  dxy             0.4       0.9       0.1       7.0       1.8       1.0
 1 C  s               0.0       0.0       3.2       0.0       0.7       0.0
 1 C  pz              1.8       0.0       0.4       0.1       0.1       0.0
 1 C  px              0.1       0.0       7.5       0.2       2.5       0.0
 1 C  py              0.0       0.0       0.2       8.9       0.1       0.0
 1 C  dz2             2.5       0.8      11.6       0.0       1.7       0.9
 1 C  dxz            15.9       0.9       1.2       0.0       2.5       1.1
 1 C  dyz             0.2      27.0       0.7       0.4       0.0      32.4
 1 C  dx2y2           0.6       0.7       0.3       0.7      19.8       0.9
 1 C  dxy             0.4       0.9       0.1       7.0       1.8       1.0
 2 H  s               0.0       0.0       0.3       0.7       0.1       0.0
 2 H  pz             13.5       9.3       0.0       0.8       0.0       6.4
 2 H  px              0.5       0.4       1.6       6.7       5.0       0.3
 2 H  py              0.2       0.2      10.4       8.2       5.3       0.1
 3 H  s               0.0       0.0       0.3       0.7       0.1       0.0
 3 H  pz             13.5       9.3       0.2       0.2       0.4       6.4
 3 H  px              0.5       0.4       0.0      11.5       1.9       0.3
 3 H  py              0.2       0.2      11.8       4.0       8.0       0.1
 4 H  s               0.0       0.0       0.3       0.7       0.1       0.0
 4 H  pz             13.5       9.3       0.2       0.2       0.4       6.4
 4 H  px              0.5       0.4       0.0      11.5       1.9       0.3
 4 H  py              0.2       0.2      11.8       4.0       8.0       0.1
 5 H  s               0.0       0.0       0.3       0.7       0.1       0.0
 5 H  pz             13.5       9.3       0.0       0.8       0.0       6.4
 5 H  px              0.5       0.4       1.6       6.7       5.0       0.3
 5 H  py              0.2       0.2      10.4       8.2       5.3       0.1

                     42        43        44        45        46        47   
                   2.47841   2.67731   2.77370   2.81248   3.04540   3.31710
                   0.00000   0.00000   0.00000   0.00000   0.00000   0.00000
                  --------  --------  --------  --------  --------  --------
 0 C  s               0.0       7.5       0.0      10.2       2.1       0.0
 0 C  pz              0.3       0.1       0.1       0.1       0.2       0.0
 0 C  px              0.0       2.1       0.2       1.7       4.3       0.0
 0 C  py              0.0       0.0       8.8       0.0       0.1       1.6
 0 C  dz2             5.7       5.2       0.0      11.7       4.3       0.0
 0 C  dxz            37.1       0.0       0.0       4.2       0.1       0.1
 0 C  dyz             0.6       0.4       0.6       0.3       0.5       1.7
 0 C  dx2y2           1.3       5.8       1.1      11.2      18.3       3.0
 0 C  dxy             1.0       0.7      10.7       0.9       2.1      29.5
 1 C  s               0.0       7.5       0.0      10.2       2.1       0.0
 1 C  pz              0.3       0.1       0.1       0.1       0.2       0.0
 1 C  px              0.0       2.1       0.2       1.7       4.3       0.0
 1 C  py              0.0       0.0       8.8       0.0       0.1       1.6
 1 C  dz2             5.7       5.2       0.0      11.7       4.3       0.0
 1 C  dxz            37.1       0.0       0.0       4.2       0.1       0.1
 1 C  dyz             0.6       0.4       0.6       0.3       0.5       1.7
 1 C  dx2y2           1.3       5.8       1.1      11.2      18.3       3.0
 1 C  dxy             1.0       0.7      10.7       0.9       2.1      29.5
 2 H  s               0.0       3.0       4.1       0.8       2.7       3.3
 2 H  pz              1.9       0.5       0.4       0.0       0.3       0.1
 2 H  px              0.1       3.4       1.7       0.2       3.6       0.0
 2 H  py              0.0       7.2       8.1       3.8       2.4       3.7
 3 H  s               0.0       3.0       4.1       0.8       2.7       3.3
 3 H  pz              1.9       0.1       0.0       0.1       0.1       0.0
 3 H  px              0.1       6.9       4.7       0.0       5.3       0.3
 3 H  py              0.0       4.2       5.5       4.0       0.9       3.4
 4 H  s               0.0       3.0       4.1       0.8       2.7       3.3
 4 H  pz              1.9       0.1       0.0       0.1       0.1       0.0
 4 H  px              0.1       6.9       4.7       0.0       5.3       0.3
 4 H  py              0.0       4.2       5.5       4.0       0.9       3.4
 5 H  s               0.0       3.0       4.1       0.8       2.7       3.3
 5 H  pz              1.9       0.5       0.4       0.0       0.3       0.1
 5 H  px              0.1       3.4       1.7       0.2       3.6       0.0
 5 H  py              0.0       7.2       8.1       3.8       2.4       3.7



                      *****************************
                      * MAYER POPULATION ANALYSIS *
                      *****************************

  NA   - Mulliken gross atomic population
  ZA   - Total nuclear charge
  QA   - Mulliken gross atomic charge
  VA   - Mayer's total valence
  BVA  - Mayer's bonded valence
  FA   - Mayer's free valence

  ATOM       NA         ZA         QA         VA         BVA        FA
  0 C      6.0563     6.0000    -0.0563     4.0211     4.0211     0.0000
  1 C      6.0563     6.0000    -0.0563     4.0211     4.0211    -0.0000
  2 H      0.9718     1.0000     0.0282     0.9744     0.9744    -0.0000
  3 H      0.9719     1.0000     0.0281     0.9744     0.9744    -0.0000
  4 H      0.9718     1.0000     0.0282     0.9744     0.9744     0.0000
  5 H      0.9718     1.0000     0.0282     0.9744     0.9744     0.0000

  Mayer bond orders larger than 0.100000
B(  0-C ,  1-C ) :   2.0823 B(  0-C ,  2-H ) :   0.9622 B(  0-C ,  3-H ) :   0.9622 
B(  1-C ,  4-H ) :   0.9622 B(  1-C ,  5-H ) :   0.9622 

-------
TIMINGS
-------

Total SCF time: 0 days 0 hours 0 min 0 sec 

Total time                  ....       0.475 sec
Sum of individual times     ....       0.400 sec  ( 84.2%)

SCF preparation             ....       0.024 sec  (  5.1%)
Fock matrix formation       ....       0.363 sec  ( 76.4%)
  Startup                   ....       0.000 sec  (  0.0% of F)
  Split-RI-J                ....       0.013 sec  (  3.6% of F)
  Chain of spheres X        ....       0.323 sec  ( 89.1% of F)
  XC integration            ....       0.095 sec  ( 26.1% of F)
    Basis function eval.    ....       0.040 sec  ( 42.1% of XC)
    Density eval.           ....       0.017 sec  ( 18.3% of XC)
    XC-Functional eval.     ....       0.014 sec  ( 14.8% of XC)
    XC-Potential eval.      ....       0.018 sec  ( 19.3% of XC)
Diagonalization             ....       0.000 sec  (  0.0%)
Density matrix formation    ....       0.000 sec  (  0.0%)
Total Energy calculation    ....       0.000 sec  (  0.0%)
Population analysis         ....       0.007 sec  (  1.5%)
Orbital Transformation      ....       0.005 sec  (  1.1%)
Orbital Orthonormalization  ....       0.000 sec  (  0.0%)
DIIS solution               ....       0.000 sec  (  0.1%)
  MO trafo                  ....       0.000 sec  (  0.0 % of DIIS)
  Orb grad                  ....       0.000 sec  (  0.0 % of DIIS)
  Energy W gradient         ....       0.000 sec  (  0.0 % of DIIS)
  DIIS error                ....       0.000 sec  (  6.5 % of DIIS)
  DIIS work                 ....       0.000 sec  ( 89.4 % of DIIS)
  Form Q                    ....       0.000 sec  (  0.0 % of DIIS)
  Form QpQm                 ....       0.000 sec  (  0.0 % of DIIS)
  Exp/Cayley                ....       0.000 sec  (  0.0 % of DIIS)
  Orb update                ....       0.000 sec  (  0.0 % of DIIS)
  Wake-sleep                ....       0.000 sec  (  3.3 % of DIIS)
SOSCF solution              ....       0.000 sec  (  0.1%)
  MO trafo                  ....       0.000 sec  ( 52.0 % of SOSCF)
  Orb grad                  ....       0.000 sec  (  1.5 % of SOSCF)
  Rot update                ....       0.000 sec  (  3.7 % of SOSCF)
  Step                      ....       0.000 sec  ( 24.2 % of SOSCF)
Finished LeanSCF after   0.5 sec

Maximum memory used throughout the entire LEANSCF-calculation: 6.7 MB

-------------------------   --------------------
FINAL SINGLE POINT ENERGY       -78.473530834008
-------------------------   --------------------

                                *** OPTIMIZATION RUN DONE ***


------------------------------------------------------------------------------
                              ORCA PROPERTY CALCULATIONS
------------------------------------------------------------------------------

GBWName                                 ... eten.gbw
Number of atoms                         ...      6
Number of basis functions               ...     48
Max core memory                         ...   4096 MB

Electric properties:
Dipole moment                           ... YES
Quadrupole moment                       ...  NO
Static polarizability (Dipole/Dipole)   ...  NO
Static polarizability (Dipole/Quad.)    ...  NO
Static polarizability (Quad./Quad.)     ...  NO
Static polarizability (Velocity)        ...  NO
Static hyperpolarizability              ...  NO

Atomic electric properties:
Dipole moment                           ...  NO
Quadrupole moment                       ...  NO
Static polarizability                   ...  NO

Choice of electric origin               ... Center of mass
Position of electric origin             ...    -1.584321    -0.004343    -0.689715

General magnetic properties:
Magnetizability                         ...  NO

EPR properties:
g-Tensor (aka g-matrix)                 ...  NO
Zero-Field splitting spin-orbit         ...  NO
Zero-field splitting spin-spin          ...  NO
Hyperfine couplings                     ...  NO (   0 nuclei)
Quadrupole couplings                    ...  NO (   0 nuclei)
Contact density                         ...  NO (   0 nuclei)

NMR properties:
Chemical shifts                         ...  NO (   0 nuclei)
Spin-rotation constants                 ...  NO (   0 nuclei)
Spin-spin couplings                     ...  NO (   0 nuclei,    0 pairs)

Choice of magnetic origin               ... GIAO
Position of magnetic origin             ...     0.000000     0.000000     0.000000

Properties with geometric perturbations:
SCF Hessian                             ...  NO
IR spectrum                             ...  NO
VCD spectrum                            ...  NO
X-ray spectroscopy properties:
SCF XES/XAS/RIXS spectra                ...  NO

SCF SOC stabilization energy            ...  NO
Diagonal Born-Oppenheimer correction    ...  NO

-------------
DIPOLE MOMENT
-------------

Method             : SCF
Type of density    : Electron Density
Multiplicity       :   1
Irrep              :   0
Energy             :   -78.4735308340077609 Eh
Basis              : AO
                                X                 Y                 Z
Electronic contribution:      0.000012512       0.000001340       0.000002780
Nuclear contribution   :     -0.000000461       0.000000441      -0.000000213
                        -----------------------------------------
Total Dipole Moment    :      0.000012051       0.000001782       0.000002567
                        -----------------------------------------
Magnitude (a.u.)       :      0.000012450
Magnitude (Debye)      :      0.000031645



--------------------
Rotational spectrum 
--------------------
 
Rotational constants in cm-1:             4.821107             0.997320             0.826372 
Rotational constants in MHz :        144533.156967         29898.895151         24774.011740 

Dipole components along the rotational axes: 
x,y,z [a.u.] :     0.000012    -0.000000    -0.000000 
x,y,z [Debye]:     0.000032    -0.000000    -0.000000 

 

Dipole moment calculation done in   0.0 sec 

Maximum memory used throughout the entire PROP-calculation: 4.0 MB

--------------------------------
SUGGESTED CITATIONS FOR THIS RUN
--------------------------------

Below you find a list of papers that are relevant to this ORCA run
We neither can nor want to force you to cite these papers, but we appreciate if you do
You receive ORCA, which is the product of decades of hard work by many enthusiastic individuals, for free
The only thing we kindly ask in return is that you cite our papers,
We deeply appreciate it, if you show your appreciation for ORCA by not just citing the generic ORCA reference.

Please note that relegating all ORCA citations to the supporting information does *not* help us.
SI sections are not indexed - citations you put there will not count into any citation statistics
But we need these citations in order to attract the funding resources that allow us to do what we are doing

Therefore, if you are a happy ORCA user, please consider citing a few of the papers listed below in the main body of your paper

In addition to the list printed below, the program has created the file eten.bibtex that contains the list in bibtex format
You can import this file easily into all common literature databanks and citation aid programs


List of essential papers. We consider these as the minimum necessary citations

  1. Neese, F.
     Software update: the ORCA program system, version 6.0
     WIRES Comput. Molec. Sci. 2025 15(1), e70019
     doi.org/10.1002/wcms.7019

List of papers to cite with high priority. The work reported in these papers was absolutely
necessary for this run to complete.
Our perspective: the developers of density functionals and basis sets usually get cited in chemistry papers
Good! But without the algorithms to do something with them, the functionals or basis sets would not do anything.
Hence, in our opinion, the algorithm design and method developments papers are equally worthy of getting cited

  1. Neese, F.
     An improvement of the resolution of the identity approximation for the formation of the Coulomb matrix
     J. Comp. Chem. 2003 24(14), 1740-1747
     doi.org/10.1002/jcc.10318
  2. Neese, F.; Wennmohs, F.; Hansen, A.; Becker, U.
     Efficient, approximate and parallel Hartree-Fock and hybrid DFT calculations. A 'chain-of-spheres' algorithm for the Hartree-Fock exchange
     Chem. Phys. 2009 356(1-3), 98-109
     doi.org/10.1016/j.chemphys.2008.10.036
  3. Helmich-Paris, B.; de Souza, B.; Neese, F.; Izsák, R.
     An improved chain of spheres for exchange algorithm
     J. Chem. Phys. 2021 155(10), 104109
     doi.org/10.1063/5.0058766
  4. Neese, F.
     The SHARK Integral Generation and Digestion System
     J. Comp. Chem. 2022 44(3), 381
     doi.org/10.1002/jcc.26942

List of suggested additional citations. These are papers that are important in the 'surrounding' of 
of this run, or papers that preceded the highly important papers. If you like your results we are grateful for a citation.

  1. Izsak, R.; Neese, F.
     An overlap fitted chain of spheres exchange method
     J. Chem. Phys. 2011 135 , 144105
     doi.org/10.1063/1.3646921
  2. Izsak, R.; Hansen, A.; Neese, F.
     The resolution of identity and chain of spheres approximations for the LPNO-CCSD singles Fock term
     Molec. Phys. 2012 110 , 2413-2417
     doi.org/10.1080/00268976.2012.687466
  3. Neese, F.
     The ORCA program system
     WIRES Comput. Molec. Sci. 2012 2(1), 73-78
     doi.org/10.1002/wcms.81
  4. Izsak, R.; Neese, F.; Klopper, W.
     Robust fitting techniques in the chain of spheres approximation to the Fock exchange: The role of the complementary space
     J. Chem. Phys. 2013 139 , 
     doi.org/10.1063/1.4819264
  5. Neese, F.
     Software update: the ORCA program system, version 4.0
     WIRES Comput. Molec. Sci. 2018 8(1), 1-6
     doi.org/10.1002/wcms.1327
  6. Neese, F.; Wennmohs, F.; Becker, U.; Riplinger, C.
     The ORCA quantum chemistry program package
     J. Chem. Phys. 2020 152(22), 224108
     doi.org/10.1063/5.0004608
  7. Neese, F.
     Software update: The ORCA program system—Version 5.0
     WIRES Comput. Molec. Sci. 2022 12(1), e1606
     doi.org/10.1002/wcms.1606

List of optional additional citations

  1. Neese, F.
     Approximate second-order SCF convergence for spin unrestricted wavefunctions
     Chem. Phys. Lett. 2000 325(1-3), 93-98
     doi.org/10.1016/s0009-2614(00)00662-x

Timings for individual modules:

Sum of individual times          ...        8.829 sec (=   0.147 min)
Startup calculation              ...        0.674 sec (=   0.011 min)   7.6 %
SCF iterations                   ...        4.034 sec (=   0.067 min)  45.7 %
Property calculations            ...        0.030 sec (=   0.000 min)   0.3 %
SCF Gradient evaluation          ...        4.072 sec (=   0.068 min)  46.1 %
Geometry relaxation              ...        0.020 sec (=   0.000 min)   0.2 %
                             ****ORCA TERMINATED NORMALLY****
TOTAL RUN TIME: 0 days 0 hours 0 minutes 8 seconds 929 msec
