
                                 *****************
                                 * O   R   C   A *
                                 *****************

                                            #,                                       
                                            ###                                      
                                            ####                                     
                                            #####                                    
                                            ######                                   
                                           ########,                                 
                                     ,,################,,,,,                         
                               ,,#################################,,                 
                          ,,##########################################,,             
                       ,#########################################, ''#####,          
                    ,#############################################,,   '####,        
                  ,##################################################,,,,####,       
                ,###########''''           ''''###############################       
              ,#####''   ,,,,##########,,,,          '''####'''          '####       
            ,##' ,,,,###########################,,,                        '##       
           ' ,,###''''                  '''############,,,                           
         ,,##''                                '''############,,,,        ,,,,,,###''
      ,#''                                            '''#######################'''  
     '                                                          ''''####''''         
             ,#######,   #######,   ,#######,      ##                                
            ,#'     '#,  ##    ##  ,#'     '#,    #''#        ,####,    ,#,          
            ##       ##  ##   ,#'  ##            #'  '#       #'       ,# #          
            ##       ##  #######   ##           ,######,      #####,      #          
            '#,     ,#'  ##    ##  '#,     ,#' ,#      #,     #,   #      #          
             '#######'   ##     ##  '#######'  #'      '#     '####' #    #          



                #########################################################
                #                        -***-                          #
                #          Department of theory and spectroscopy        #
                #                                                       #
                #                      Frank Neese                      #
                #                                                       #
                #     Directorship, Architecture, Infrastructure        #
                #                    SHARK, DRIVERS                     #
                #        Core code/Algorithms in most modules           #
                #                                                       #
                #        Max Planck Institute fuer Kohlenforschung      #
                #                Kaiser Wilhelm Platz 1                 #
                #                 D-45470 Muelheim/Ruhr                 #
                #                      Germany                          #
                #                                                       #
                #                  All rights reserved                  #
                #                        -***-                          #
                #########################################################


                         Program Version 6.1.0  -  RELEASE   -
                                (GIT: $679e74b$)
                          ($2025-06-10 18:02:51 +0200$)


 With contributions from (in alphabetic order):
[Max-Planck-Institut fuer Kohlenforschung]                               
  Daniel Aravena         : Magnetic Suceptibility                        
  Michael Atanasov       : Ab Initio Ligand Field Theory (pilot matlab implementation)
  Alexander A. Auer      : GIAO ZORA, VPT2 properties, NMR spectrum      
  Ute Becker             : All parallelization in ORCA, NUMFREQ, NUMCALC 
  Giovanni Bistoni       : ED, misc. LED, open-shell LED, HFLD           
  Dmytro Bykov           : pre 5.0 version of the SCF Hessian            
  Marcos Casanova-Páez   : Triplet and SCS-CIS(D). UHF-(DLPNO)-IP/EA/STEOM-CCSD. UHF-CVS-IP/STEOM-CCSD   
  Vijay G. Chilkuri      : MRCI spin determinant printing, contributions to CSF-ICE 
  Pauline Colinet        : FMM embedding                                 
  Dipayan Datta          : RHF DLPNO-CCSD density                        
  Achintya Kumar Dutta   : EOM-CC, STEOM-CC                              
  Nicolas Foglia         : Exact transition moments, OPA infrastructure, MCD improvements    
  Dmitry Ganyushin       : Spin-Orbit,Spin-Spin,Magnetic field MRCI      
  Miquel Garcia-Rates    : C-PCM and meta-GGA Hessian, CCSD/C-PCM, Gaussian charge scheme 
  Tiago L. C. Gouveia    : GS-ROHF, GS-ROCIS                             
  Yang Guo               : DLPNO-NEVPT2, F12-NEVPT2, CIM, IAO-localization        
  Andreas Hansen         : Spin unrestricted coupled pair/coupled cluster methods 
  Ingolf Harden          : AUTO-CI MPn and infrastructure                
  Benjamin Helmich-Paris : MC-RPA, TRAH-(SCF,CASSCF), AVAS, COSX integrals, SCF dyn. polar., MC-PDFT, srDFT 
  Lee Huntington         : MR-EOM, pCC                                   
  Robert Izsak           : Overlap fitted RIJCOSX, COSX-SCS-MP3, EOM     
  Riya Kayal             : Wick's Theorem for AUTO-CI, AUTO-CI UHF-CCSDT 
  Emily Kempfer          : AUTO-CI RHF CISDT and CCSDT, approximate NEVPT4
  Christian Kollmar      : KDIIS, OOCD, Brueckner-CCSD(T), CCSD density, CASPT2, CASPT2-K, improved NEVPT2 
  Axel Koslowski         : Symmetry handling                             
  Simone Kossmann        : meta-GGA functionals, TD-DFT gradient, OOMP2, (MP2 Hessian; deprecated post 5.0) 
  Lucas Lang             : DCDCAS, Hyperfine gauge corrections, ICE-SOC+SSC
  Marvin Lechner         : AUTO-CI (C++ implementation), FIC-MRCC        
  Spencer Leger          : CASSCF response                               
  Dagmar Lenk            : GEPOL surface, SMD, ORCA-2-JSON               
  Dimitrios Liakos       : Extrapolation schemes; Compound Job, Property file
  Dimitrios Manganas     : Further ROCIS development; embedding schemes. LFT, Crystal Embedding 
  Dimitrios Pantazis     : SARC Basis sets                               
  Anastasios Papadopoulos: AUTO-CI, single reference methods and gradients 
  Taras Petrenko         : pre 6.0 DFT Hessian and TD-DFT gradient,  ECA, NRVS 
  Petra Pikulova         : Analytic Raman intensities                    
  Peter Pinski           : DLPNO-MP2, DLPNO-MP2 Gradient                 
  Shashank Vittal Rao    : ES-AILFT, MagRelax                            
  Christoph Reimann      : Effective Core Potentials                     
  Marius Retegan         : Local ZFS, SOC                                
  Christoph Riplinger    : Optimizer, TS searches, QM/MM, DLPNO-CCSD(T), (RO)-DLPNO pert. Triples 
  Michael Roemelt        : Original ROCIS implementation, recursive CI coupling coefficients
  Masaaki Saitow         : Open-shell DLPNO-CCSD energy and density      
  Barbara Sandhoefer     : DKH picture change effects                    
  Yorick L. A. Schmerwitz: GMF and freeze-and-release deltaSCF, NEB S-IDPP initial path                    
  Kantharuban Sivalingam : CASSCF convergence/infrastructure, NEVPT2, NEVPT3, NEVPT4(SD), FIC-MRCI and CEPA variants
  Bernardo de Souza      : ESD, SOC TD-DFT                               
  Georgi L. Stoychev     : AutoAux, RI-MP2 NMR, DLPNO-MP2 response, X2C  
  Van Anh Tran           : RI-MP2 g-tensors                              
  Willem Van den Heuvel  : Paramagnetic NMR                              
  Zikuan Wang            : NOTCH, Electric field optimization            
  Frank Wennmohs         : Technical directorship and infrastructure     
  Hang Xu                : AUTO-CI-Response properties                   
                                                                         
[FACCTs GmbH]                                                            
  Markus Bursch, Nicolas Foglia, Miquel Garcia-Rates, Ingolf Harden, Hagen Neugebauer, Anastasios Papadopoulos, 
  Christoph Riplinger, Bernardo de Souza, Georgi L. Stoychev                                                    
                                                                 
  APM, various basis sets, CI-OPT, improved COSX, DLPNO-Multilevel,           
  DOCKER, DRACO, updates on ESD, Fragmentator, GOAT, IRC, LR-CPCM, L-BFGS, MBIS, meta-GGA TD-DFT gradient, ML-optimized integration grids, 
  MM, NACMEs, nearIR, NEB, NEB-TS, NL-DFT gradient (VV10), 2- and 3-layer-ONIOM, interface openCOSMO-RS, QMMM,   
  Crystal-QMMM, RESP, rigid body optimization, SF, symmetry and pop. for TD-DFT, various functionals, SOLVATOR                                   
                                                                         
[Other institutions]                                                     
  V. Asgeirsson          : NEB                                           
  Christoph Bannwarth    : sTDA-DFT, sTD-DFT, PBEh-3c, B97-3c, D3        
  Giovanni Bistoni       : ETS/NOCV, ADLD/ADEX, COVALED                  
  Martin Brehm           : Molecular dynamics                            
  Ronald Cardenas        : ETS/NOCV                                      
  Martina Colucci        : COVALED                                       
  Sebastian Ehlert       : rSCAN, r2SCAN, r2SCAN-3c, D4, dhf basis sets  
  Marvin Friede          : D4 for Fr, Ra, Ac-Lr                          
  Lars Goerigk           : TD-DFT with DH, B97 family of functionals     
  Stefan Grimme          : VdW corrections, initial TS optimization, DFT functionals, gCP, sTDA/sTD-DF 
  Waldemar Hujo          : DFT-NL                                        
  H. Jonsson             : NEB                                           
  Holger Kruse           : gCP                                           
  Marcel Mueller         : wB97X-3c, vDZP basis set                      
  Hagen Neugebauer       : wr2SCAN, Native XTB                           
  Gianluca Regni         : ADLD/ADEX                                     
  Tobias Risthaus        : pre 6.0 range-separated hybrid DFT and stability analysis
  Lukas Wittmann         : regularized MP2, r2SCAN double-hybrids, wr2SCAN        
                                                                         
We gratefully acknowledge several colleagues who have allowed us to      
interface, adapt or use parts of their codes:                            
  Ed Valeev, F. Pavosevic, A. Kumar             : LibInt (2-el integral package), F12 methods 
  Garnet Chan, S. Sharma, J. Yang, R. Olivares  : DMRG                   
  Ulf Ekstrom                                   : XCFun DFT Library      
  Mihaly Kallay                                 : mrcc  (arbitrary order and MRCC methods)
  Frank Weinhold                                : gennbo (NPA and NBO analysis)           
  Simon Mueller                                 : openCOSMO-RS                            
  Christopher J. Cramer and Donald G. Truhlar   : smd solvation model                     
  S Lehtola, MJT Oliveira, MAL Marques          : LibXC Library                           
  Liviu Ungur et al                             : ANISO software                          


 Your calculation uses the libint2 library for the computation of 2-el integrals
 For citations please refer to: http://libint.valeyev.net

 Your ORCA version has been built with support for libXC version: 7.0.0
 For citations please refer to: https://libxc.gitlab.io

 This ORCA versions uses:
   CBLAS   interface :  Fast vector & matrix operations
   LAPACKE interface :  Fast linear algebra routines
   SCALAPACK package :  Parallel linear algebra routines
   Shared memory     :  Shared parallel matrices
   BLAS/LAPACK       :  OpenBLAS 0.3.29  USE64BITINT DYNAMIC_ARCH NO_AFFINITY Haswell SINGLE_THREADED
        Core in use  :  Haswell
   Copyright (c) 2011-2014, The OpenBLAS Project


  ***********************************
  * Starting time: Tue Nov 25 08:58:21 2025
  * Host name:     PC-44
  * Process ID:    12344
  * Working dir.:  /home/m.dutkiewicz/chemia_obliczeniowa/cw_3
  ***********************************

Warning: RI is on but no J-basis has been assigned. Assigning Def2/J (nothing to worry about!)
================================================================================

----- Orbital basis set information -----
Your calculation utilizes the basis: def2-SVP
   F. Weigend and R. Ahlrichs, Phys. Chem. Chem. Phys. 7, 3297 (2005).

----- AuxJ basis set information -----
Your calculation utilizes the auxiliary basis: def2/J
   H-Rn: F. Weigend, Phys. Chem. Chem. Phys. 8, 1057 (2006).
   Fr-Lr: K. Eichkorn, F. Weigend, O. Treutler, R. Ahlrichs; Theor. Chem. Acc. 97, 119 (1997).

================================================================================
                                        WARNINGS
                       Please study these warnings very carefully!
================================================================================

WARNING: Old DensityContainer found on disk!
         Will remove this file - 
         If you want to keep old densities, please start your calculation with a different basename. 


WARNING: Geometry Optimization
  ===> : Switching off AutoStart
         For restart on a previous wavefunction, please use MOREAD

================================================================================
                                       INPUT FILE
================================================================================
NAME = metan.inp
|  1> !B3LYP def2-SVP Opt Largeprint
|  2> * xyz 0 1
|  3>  C        -0.160540        0.094120       -0.251740
|  4>  H         0.940420        0.044610       -0.124440
|  5>  H        -0.511380        1.124890       -0.039140
|  6>  H        -0.646250       -0.614100        0.450600
|  7>  H        -0.424920       -0.178900       -1.294020
|  8> *
|  9> 
| 10>                          ****END OF INPUT****
================================================================================

                       *****************************
                       * Geometry Optimization Run *
                       *****************************

Geometry optimization settings:
Update method            Update   .... BFGS
Choice of coordinates    CoordSys .... (2022) Redundant Internals
Initial Hessian          InHess   .... Almloef's Model
Max. no of cycles        MaxIter  .... 50

Convergence Tolerances:
Energy Change            TolE     ....  5.0000e-06 Eh
Max. Gradient            TolMAXG  ....  3.0000e-04 Eh/bohr
RMS Gradient             TolRMSG  ....  1.0000e-04 Eh/bohr
Max. Displacement        TolMAXD  ....  4.0000e-03 bohr
RMS Displacement         TolRMSD  ....  2.0000e-03 bohr
Strict Convergence                .... False

------------------------------------------------------------------------------
                        ORCA OPTIMIZATION COORDINATE SETUP
------------------------------------------------------------------------------

The optimization will be done in redundant internal coordinates (2022)
Making redundant internal coordinates   ...  (2022 redundants) done
Evaluating the initial hessian          ...  (Almloef) done
Evaluating the coordinates              ...  done
Calculating the B-matrix                .... done
Calculating the G-matrix                .... done
The number of degrees of freedom        ....   10

    -----------------------------------------------------------------
                    Redundant Internal Coordinates


    -----------------------------------------------------------------
         Definition                    Initial Value    Approx d2E/dq
    -----------------------------------------------------------------
      1. B(H   1,C   0)                  1.1094         0.335329   
      2. B(H   2,C   0)                  1.1094         0.335326   
      3. B(H   3,C   0)                  1.1094         0.335328   
      4. B(H   4,C   0)                  1.1094         0.335321   
      5. A(H   1,C   0,H   3)          109.4721         0.284431   
      6. A(H   2,C   0,H   3)          109.4727         0.284431   
      7. A(H   1,C   0,H   4)          109.4701         0.284430   
      8. A(H   2,C   0,H   4)          109.4710         0.284430   
      9. A(H   3,C   0,H   4)          109.4715         0.284430   
     10. A(H   1,C   0,H   2)          109.4699         0.284431   
    -----------------------------------------------------------------

Number of atoms                         .... 5
Number of degrees of freedom            .... 10


         *************************************************************
         *                GEOMETRY OPTIMIZATION CYCLE   1            *
         *************************************************************
---------------------------------
CARTESIAN COORDINATES (ANGSTROEM)
---------------------------------
  C     -0.160540    0.094120   -0.251740
  H      0.940420    0.044610   -0.124440
  H     -0.511380    1.124890   -0.039140
  H     -0.646250   -0.614100    0.450600
  H     -0.424920   -0.178900   -1.294020

----------------------------
CARTESIAN COORDINATES (A.U.)
----------------------------
  NO LB      ZA    FRAG     MASS         X           Y           Z
   0 C     6.0000    0    12.011   -0.303377    0.177861   -0.475720
   1 H     1.0000    0     1.008    1.777136    0.084301   -0.235158
   2 H     1.0000    0     1.008   -0.966368    2.125734   -0.073964
   3 H     1.0000    0     1.008   -1.221236   -1.160481    0.851511
   4 H     1.0000    0     1.008   -0.802982   -0.338072   -2.445343

--------------------------------
INTERNAL COORDINATES (ANGSTROEM)
--------------------------------
 C      0   0   0     0.000000000000     0.00000000     0.00000000
 H      1   0   0     1.109400492023     0.00000000     0.00000000
 H      1   2   0     1.109402658416   109.46988570     0.00000000
 H      1   2   3     1.109401301649   109.47214122   239.99841748
 H      1   2   3     1.109407185482   109.47012791   119.99819378

---------------------------
INTERNAL COORDINATES (A.U.)
---------------------------
 C      0   0   0     0.000000000000     0.00000000     0.00000000
 H      1   0   0     2.096463102760     0.00000000     0.00000000
 H      1   2   0     2.096467196650   109.46988570     0.00000000
 H      1   2   3     2.096464632732   109.47214122   239.99841748
 H      1   2   3     2.096475751566   109.47012791   119.99819378

---------------------
BASIS SET INFORMATION
---------------------
There are 2 groups of distinct atoms

 Group   1 Type C   : 7s4p1d contracted to 3s2p1d pattern {511/31/1}
 Group   2 Type H   : 4s1p contracted to 2s1p pattern {31/1}

Atom   0C    basis set group =>   1
Atom   1H    basis set group =>   2
Atom   2H    basis set group =>   2
Atom   3H    basis set group =>   2
Atom   4H    basis set group =>   2

-------------------------
BASIS SET IN INPUT FORMAT
-------------------------

 # Basis set for element : H 
 NewGTO H 
 S 3 
   1      13.0107010000      0.0334854848
   2       1.9622572000      0.2347218709
   3       0.4445379600      0.8137702853
 S 1 
   1       0.1219496200      1.0000000000
 P 1 
   1       0.8000000000      1.0000000000
  end;

 # Basis set for element : C 
 NewGTO C 
 S 5 
   1    1238.4016938000      0.0055173650
   2     186.2900499200      0.0410888285
   3      42.2511763460      0.1822538213
   4      11.6765579320      0.4682845944
   5       3.5930506482      0.4457581734
 S 1 
   1       0.4024514736      1.0000000000
 S 1 
   1       0.1309018267      1.0000000000
 P 3 
   1       9.4680970621      0.0568883320
   2       2.0103545142      0.3129405934
   3       0.5477100471      0.7606501651
 P 1 
   1       0.1526861379      1.0000000000
 D 1 
   1       0.8000000000      1.0000000000
  end;

---------------------------------
AUXILIARY/J BASIS SET INFORMATION
---------------------------------
There are 2 groups of distinct atoms

 Group   1 Type C   : 12s5p4d2f1g contracted to 6s4p3d1f1g pattern {711111/2111/211/2/1}
 Group   2 Type H   : 5s2p1d contracted to 3s1p1d pattern {311/2/1}

Atom   0C    basis set group =>   1
Atom   1H    basis set group =>   2
Atom   2H    basis set group =>   2
Atom   3H    basis set group =>   2
Atom   4H    basis set group =>   2

-------------------------------------
AUXILIARY/J BASIS SET IN INPUT FORMAT
-------------------------------------

 # Auxiliary/J basis set for element : H 
 NewAuxJGTO H 
 S 3 
   1      15.6752927000      0.1007184237
   2       3.6063578000      0.3404257499
   3       1.2080016000      0.6491996172
 S 1 
   1       0.4726794000      1.0000000000
 S 1 
   1       0.2018100000      1.0000000000
 P 2 
   1       2.0281365000      0.5596620919
   2       0.5358730000      0.5596620919
 D 1 
   1       2.2165124000      1.0000000000
  end;

 # Auxiliary/J basis set for element : C 
 NewAuxJGTO C 
 S 7 
   1    1861.0916331000      0.0134602335
   2     642.9939764000      0.0299160374
   3     235.1105725000      0.1008649584
   4      90.7028894000      0.2370970548
   5      36.7794552000      0.3924037254
   6      15.6046273000      0.3195862154
   7       6.8907294000      0.0530104441
 S 1 
   1       3.1478850000     -1.0000000000
 S 1 
   1       1.4777287000      1.0000000000
 S 1 
   1       0.7076466000      1.0000000000
 S 1 
   1       0.3430122000      1.0000000000
 S 1 
   1       0.1669453000      1.0000000000
 P 2 
   1      13.5472892000     -0.6769313712
   2       5.4669419000     -0.3779500978
 P 1 
   1       2.1751721000      1.0000000000
 P 1 
   1       0.8582194000      1.0000000000
 P 1 
   1       0.3376720000      1.0000000000
 D 2 
   1       5.9287253000     -0.3533329857
   2       1.9809209000     -0.7456525731
 D 1 
   1       0.8055417000     -1.0000000000
 D 1 
   1       0.3531244000     -1.0000000000
 F 2 
   1       1.6755626000      0.6311076882
   2       0.5997536000      0.4968166032
 G 1 
   1       1.0024600000     -1.0000000000
  end;

------------------------------------------------------------------------------
                             ORCA STARTUP CALCULATIONS
                           -- RI-GTO INTEGRALS CHOSEN --
------------------------------------------------------------------------------
------------------------------------------------------------------------------
                   ___                                                        
                  /   \      - P O W E R E D   B Y -                         
                 /     \                                                     
                 |  |  |   _    _      __       _____    __    __             
                 |  |  |  | |  | |    /  \     |  _  \  |  |  /  |          
                  \  \/   | |  | |   /    \    | | | |  |  | /  /          
                 / \  \   | |__| |  /  /\  \   | |_| |  |  |/  /          
                |  |  |   |  __  | /  /__\  \  |    /   |      \           
                |  |  |   | |  | | |   __   |  |    \   |  |\   \          
                \     /   | |  | | |  |  |  |  | |\  \  |  | \   \       
                 \___/    |_|  |_| |__|  |__|  |_| \__\ |__|  \__/        
                                                                              
                      - O R C A' S   B I G   F R I E N D -                    
                                      &                                       
                       - I N T E G R A L  F E E D E R -                       
                                                                              
 v1 FN, 2020, v2 2021, v3 2022-2024                                           
------------------------------------------------------------------------------


----------------------
SHARK INTEGRAL PACKAGE
----------------------

Number of atoms                             ...      5
Number of basis functions                   ...     34
Number of shells                            ...     18
Maximum angular momentum                    ...      2
Integral batch strategy                     ... SHARK/LIBINT Hybrid
RI-J (if used) integral strategy            ... SPLIT-RIJ (Revised 2003 algorithm where possible)
Printlevel                                  ...      1
Contraction scheme used                     ... SEGMENTED contraction
Prescreening option                         ... SCHWARTZ
   Thresh                                   ... 2.500e-11
   Tcut                                     ... 2.500e-12
   Tpresel                                  ... 2.500e-12 
Coulomb Range Separation                    ... NOT USED
Exchange Range Separation                   ... NOT USED
Multipole approximations                    ... NOT USED
Finite Nucleus Model                        ... NOT USED
CABS basis                                  ... NOT available
Auxiliary Coulomb fitting basis             ... AVAILABLE
   # of basis functions in Aux-J            ...     93
   # of shells in Aux-J                     ...     35
   Maximum angular momentum in Aux-J        ...      4
Auxiliary J/K fitting basis                 ... NOT available
Auxiliary Correlation fitting basis         ... NOT available
Auxiliary 'external' fitting basis          ... NOT available

Checking pre-screening integrals            ... done (  0.0 sec) Dimension = 18
   => SHARK Basis and OBASIS are compatible. Storing Pre-screening
Shell pair information
Shell pair cut-off parameter TPreSel        ...   2.5e-12
Total number of shell pairs                 ...       171
Shell pairs after pre-screening             ...       171
Total number of primitive shell pairs       ...       553
Primitive shell pairs kept                  ...       535
          la=0 lb=0:     66 shell pairs
          la=1 lb=0:     66 shell pairs
          la=1 lb=1:     21 shell pairs
          la=2 lb=0:     11 shell pairs
          la=2 lb=1:      6 shell pairs
          la=2 lb=2:      1 shell pairs

Checking whether 4 symmetric matrices of dimension 34 fit in memory
:Max Core in MB      =   4096.00
 MB in use           =      3.37
 MB left             =   4092.63
 MB needed           =      0.02
 Data fit in memory  = YES
Calculating RI/J V-Matrix + Cholesky decomp.... done (  0.0 sec)
Calculating Nuclear repulsion               ... done (  0.0 sec) ENN=     13.200410861823 Eh

Diagonalization of the overlap matrix:
Smallest eigenvalue                        ... 1.468e-02
Time for diagonalization                   ...    0.000 sec
Threshold for overlap eigenvalues          ... 1.000e-07
Number of eigenvalues below threshold      ... 0
Time for construction of square roots      ...    0.000 sec
Total time needed                          ...    0.000 sec

-------------------
DFT GRID GENERATION
-------------------

General Integration Accuracy     IntAcc      ... 4.388
Radial Grid Type                 RadialGrid  ... OptM3 with GC (2021)
Angular Grid (max. ang.)         AngularGrid ... 4 (Lebedev-302)
Angular grid pruning method      GridPruning ... 4 (adaptive)
Weight generation scheme         WeightScheme... mBecke (2022)
Basis function cutoff            BFCut       ... 1.0000e-11
Integration weight cutoff        WCut        ... 1.0000e-14
Partially contracted basis set               ... off
Rotationally invariant grid construction     ... off
Angular grids for H and He will be reduced by one unit

Total number of grid points                  ...    19250
Total number of batches                      ...      303
Average number of points per batch           ...       63
Average number of grid points per atom       ...     3850

--------------------
COSX GRID GENERATION
--------------------

GRIDX 1
-------
General Integration Accuracy     IntAcc      ... 3.816
Radial Grid Type                 RadialGrid  ... OptM3 with GC (2021)
Angular Grid (max. ang.)         AngularGrid ... 1 (Lebedev-50)
Angular grid pruning method      GridPruning ... 4 (adaptive)
Weight generation scheme         WeightScheme... mBecke (2022)
Basis function cutoff            BFCut       ... 1.0000e-11
Integration weight cutoff        WCut        ... 1.0000e-14
Partially contracted basis set               ... on
Rotationally invariant grid construction     ... off
Angular grids for H and He will be reduced by one unit

Total number of grid points                  ...     2525
Total number of batches                      ...       23
Average number of points per batch           ...      109
Average number of grid points per atom       ...      505
UseSFitting                                  ... on

GRIDX 2
-------
General Integration Accuracy     IntAcc      ... 4.020
Radial Grid Type                 RadialGrid  ... OptM3 with GC (2021)
Angular Grid (max. ang.)         AngularGrid ... 2 (Lebedev-110)
Angular grid pruning method      GridPruning ... 4 (adaptive)
Weight generation scheme         WeightScheme... mBecke (2022)
Basis function cutoff            BFCut       ... 1.0000e-11
Integration weight cutoff        WCut        ... 1.0000e-14
Partially contracted basis set               ... on
Rotationally invariant grid construction     ... off
Angular grids for H and He will be reduced by one unit

Total number of grid points                  ...     5067
Total number of batches                      ...       43
Average number of points per batch           ...      117
Average number of grid points per atom       ...     1013
UseSFitting                                  ... on

GRIDX 3
-------
General Integration Accuracy     IntAcc      ... 4.338
Radial Grid Type                 RadialGrid  ... OptM3 with GC (2021)
Angular Grid (max. ang.)         AngularGrid ... 3 (Lebedev-194)
Angular grid pruning method      GridPruning ... 4 (adaptive)
Weight generation scheme         WeightScheme... mBecke (2022)
Basis function cutoff            BFCut       ... 1.0000e-11
Integration weight cutoff        WCut        ... 1.0000e-14
Partially contracted basis set               ... on
Rotationally invariant grid construction     ... off
Angular grids for H and He will be reduced by one unit

Total number of grid points                  ...    11170
Total number of batches                      ...       90
Average number of points per batch           ...      124
Average number of grid points per atom       ...     2234
UseSFitting                                  ... on
Grids setup in   0.0 sec
Initializing property integral containers    ... done (  0.0 sec)

SHARK setup successfully completed in   0.1 seconds

Maximum memory used throughout the entire STARTUP-calculation: 9.3 MB
-------------------------------------------------------------------------------
                                 ORCA GUESS
                   Start orbitals & Density for SCF / CASSCF
-------------------------------------------------------------------------------

------------
SCF SETTINGS
------------
Hamiltonian:
 Density Functional     Method          .... DFT(GTOs)
 Exchange Functional    Exchange        .... B88
   X-Alpha parameter    XAlpha          ....  0.666667
   Becke's b parameter  XBeta           ....  0.004200
 Correlation Functional Correlation     .... LYP
 LDA part of GGA corr.  LDAOpt          .... VWN-5
 Gradients option       PostSCFGGA      .... off
 Hybrid DFT is turned on
   Fraction HF Exchange ScalHFX         ....  0.200000
   Scaling of DF-GGA-X  ScalDFX         ....  0.720000
   Scaling of DF-GGA-C  ScalDFC         ....  0.810000
   Scaling of DF-LDA-C  ScalLDAC        ....  1.000000
   Perturbative correction              ....  0.000000
   NL short-range parameter             ....  4.800000
 RI-approximation to the Coulomb term is turned on
   Number of AuxJ basis functions       .... 93
   RIJ-COSX (HFX calculated with COS-X)).... on


General Settings:
 Integral files         IntName         .... metan
 Hartree-Fock type      HFTyp           .... RHF
 Total Charge           Charge          ....    0
 Multiplicity           Mult            ....    1
 Number of Electrons    NEL             ....   10
 Basis Dimension        Dim             ....   34
 Nuclear Repulsion      ENuc            ....     13.2004108618 Eh

Convergence Acceleration:
 AO-DIIS                CNVDIIS         .... on
   Start iteration      DIISMaxIt       ....    12
   Startup error        DIISStart       ....  0.200000
   # of expansion vecs  DIISMaxEq       ....     5
   Bias factor          DIISBfac        ....   1.050
   Max. coefficient     DIISMaxC        ....  10.000
 MO-DIIS                CNVKDIIS        .... off
 Trust-Rad. Augm. Hess. CNVTRAH         .... auto
   Auto Start mean grad. ratio tolernc. ....  1.125000
   Auto Start start iteration           ....    50
   Auto Start num. interpolation iter.  ....    10
   Max. Number of Micro iterations      ....    24
   Max. Number of Macro iterations      .... Maxiter - #DIIS iter
   Number of Davidson start vectors     ....     2
   Converg. threshold    (grad. norm)   ....   1.000e-05
   Grad. Scal. Fac. for Micro threshold ....   0.100
   Minimum threshold for Micro iter.    ....   1.000e-02
   NR start threshold (gradient norm)   ....   1.000e-04
   Initial trust radius                 ....   0.400
   Minimum AH scaling param. (alpha)    ....   1.000
   Maximum AH scaling param. (alpha)    .... 1000.000
   Quad. conv. algorithm                .... NR
   White noise on init. David. guess    .... on
   Maximum white noise                  ....   0.010
   Pseudo random numbers                .... off
   Inactive MOs                         .... canonical
   Orbital update algorithm             .... Taylor
   Preconditioner                       .... Diag
   Full preconditioner red. dimension   ....   250
 SOSCF                 CNVSOSCF           .... on
   Start iteration     SOSCFMaxIt         ....   150
   Startup grad/error  SOSCFStart         ....  0.003300
   Hessian update      SOSCFHessUp        .... L-BFGS
   Autom. constraints  SOSCFAutoConstrain .... off
 Level Shifting         CNVShift        .... on
   Level shift para.    LevelShift      ....    0.2500
   Turn off err/grad.   ShiftErr        ....    0.0010
 Zerner damping         CNVZerner       .... off
 Static damping         CNVDamp         .... on
   Fraction old density DampFac         ....    0.7000
   Max. Damping (<1)    DampMax         ....    0.9800
   Min. Damping (>=0)   DampMin         ....    0.0000
   Turn off err/grad.   DampErr         ....    0.1000

SCF Procedure:
 Maximum # iterations   MaxIter         ....   125
 SCF integral mode      SCFMode         .... Direct
   Integral package                     .... SHARK and LIBINT hybrid scheme
 Reset frequency        DirectResetFreq ....    20
 Integral Threshold     Thresh          ....  2.500e-11 Eh
 Primitive CutOff       TCut            ....  2.500e-12 Eh

Convergence Tolerance:
 Convergence Check Mode ConvCheckMode   .... Total+1el-Energy
 Convergence forced     ConvForced      .... 0
 Energy Change          TolE            ....  1.000e-08 Eh
 1-El. energy change                    ....  1.000e-05 Eh
 Orbital Gradient       TolG            ....  1.000e-05
 Orbital Rotation angle TolX            ....  1.000e-05
 DIIS Error             TolErr          ....  5.000e-07

------------------------------
INITIAL GUESS: MODEL POTENTIAL
------------------------------
Loading Hartree-Fock densities                     ... done
Calculating cut-offs                               ... done
Initializing the effective Hamiltonian             ... done
Setting up the integral package (SHARK)            ... done
Starting the Coulomb interaction                   ... done (   0.0 sec)
Making the grid                                    ... done (   0.0 sec)
Mapping shells                                     ... done
Starting the XC term evaluation                    ... done (   0.0 sec)
  promolecular density results
     # of electrons  =      9.998704273
     EX              =     -6.295401515
     EC              =     -0.287606360
     EX+EC           =     -6.583007875
Transforming the Hamiltonian                       ... done (   0.0 sec)
Diagonalizing the Hamiltonian                      ... done (   0.0 sec)
Back transforming the eigenvectors                 ... done (   0.0 sec)
Now organizing SCF variables                       ... done
                      ------------------
                      INITIAL GUESS DONE (   0.0 sec)
                      ------------------
----------------------
INITIAL GUESS ORBITALS
----------------------
                      0         1         2         3         4         5   
                 -10.10405  -0.74647  -0.46680  -0.46673  -0.46671   0.00032
                   2.00000   2.00000   2.00000   2.00000   2.00000   0.00000
                  --------  --------  --------  --------  --------  --------
  0C   1s         0.987247 -0.266593  0.000017  0.000028  0.000009 -0.172463
  0C   2s         0.054187  0.567236 -0.000165 -0.000107 -0.000066  0.402954
  0C   3s        -0.041675  0.076235  0.000468  0.000251  0.000179  2.373024
  0C   1pz       -0.000000 -0.000087  0.172800 -0.436607  0.192329 -0.000341
  0C   1px        0.000000 -0.000036  0.348025  0.255256  0.266820 -0.000502
  0C   1py       -0.000000  0.000033 -0.326313  0.041028  0.386363  0.000405
  0C   2pz       -0.000001 -0.000052  0.059120 -0.149250  0.065704 -0.001228
  0C   2px        0.000000  0.000075  0.119016  0.087271  0.091100  0.000319
  0C   2py        0.000000 -0.000052 -0.111572  0.013982  0.132112  0.001170
  0C   1dz2      -0.000001  0.000023 -0.003544  0.005275 -0.015329  0.000007
  0C   1dxz      -0.000001  0.000022 -0.000806  0.010302  0.000143  0.000002
  0C   1dyz       0.000003  0.000040 -0.008074  0.010356  0.003408  0.000053
  0C   1dx2y2     0.000001  0.000001  0.014597  0.008876  0.001877  0.000017
  0C   1dxy       0.000002 -0.000008  0.006163 -0.003165 -0.008894  0.000040
  1H   1s        -0.003692  0.174173  0.290313  0.153949  0.206167 -0.077469
  1H   2s         0.007860  0.029479  0.068708  0.036462  0.048991 -0.928381
  1H   1pz        0.000347 -0.002539  0.002201 -0.013295  0.003477 -0.001358
  1H   1px        0.002998 -0.022007 -0.012393 -0.004638 -0.008282 -0.011734
  1H   1py       -0.000135  0.000991 -0.007943  0.001644  0.011283  0.000566
  2H   1s        -0.003691  0.174158 -0.290613 -0.096525  0.238110 -0.077517
  2H   2s         0.007859  0.029587 -0.069112 -0.022945  0.056362 -0.930721
  2H   1pz        0.000578 -0.004280  0.008991 -0.010533  0.001798 -0.002317
  2H   1px       -0.000956  0.006999  0.002518  0.004628  0.013017  0.003672
  2H   1py        0.002806 -0.020593  0.011613  0.007938 -0.006245 -0.011040
  3H   1s        -0.003690  0.174141  0.126383 -0.316814 -0.184809 -0.077082
  3H   2s         0.007861  0.029564  0.029920 -0.075251 -0.043884 -0.926937
  3H   1pz        0.001912 -0.014034 -0.001358  0.003304  0.014136 -0.007502
  3H   1px       -0.001322  0.009741  0.013733 -0.003611  0.001127  0.005242
  3H   1py       -0.001928  0.014157 -0.002781 -0.014231  0.001601  0.007589
  4H   1s        -0.003691  0.174121 -0.126110  0.259350 -0.259458 -0.077570
  4H   2s         0.007858  0.029488 -0.029906  0.061437 -0.061650 -0.930513
  4H   1pz       -0.002839  0.020788 -0.004270  0.006578 -0.013277  0.011131
  4H   1px       -0.000720  0.005286  0.007224  0.011683  0.002572  0.002809
  4H   1py       -0.000743  0.005458 -0.011277  0.005975  0.005698  0.002900
                      6         7         8         9        10        11   
                   0.04863   0.04869   0.04873   0.30812   0.30837   0.30869
                   0.00000   0.00000   0.00000   0.00000   0.00000   0.00000
                  --------  --------  --------  --------  --------  --------
  0C   1s        -0.000186  0.000074  0.000043  0.000132 -0.000167  0.000144
  0C   2s         0.000013 -0.000117 -0.000217 -0.000952  0.001010 -0.001231
  0C   3s         0.004999 -0.001115  0.000225  0.002469 -0.001863  0.003849
  0C   1pz        0.203627 -0.395080  0.115868 -0.233612  0.048230 -0.178946
  0C   1px        0.231018  0.216772  0.332915 -0.044197  0.264281  0.128132
  0C   1py       -0.340791 -0.089254  0.294846 -0.181961 -0.126312  0.198792
  0C   2pz        0.469287 -0.911902  0.268018  0.851282 -0.175893  0.653222
  0C   2px        0.531776  0.499297  0.768046  0.162796 -0.964763 -0.470601
  0C   2py       -0.787499 -0.205935  0.678628  0.660358  0.464917 -0.726967
  0C   1dz2       0.004738 -0.015695  0.028232  0.085960 -0.027422 -0.013669
  0C   1dxz       0.005254 -0.019088 -0.004015  0.030348  0.011703  0.046717
  0C   1dyz       0.020215 -0.015516 -0.007751  0.014655 -0.022900  0.069816
  0C   1dx2y2    -0.024080 -0.020400 -0.011961  0.019560  0.091205  0.016902
  0C   1dxy      -0.015083  0.000115  0.015966  0.031913  0.017220 -0.050118
  1H   1s        -0.165966 -0.107463 -0.205416 -0.179804  0.778931  0.282072
  1H   2s        -1.002022 -0.648450 -1.235217  0.061069 -0.266052 -0.098197
  1H   1pz        0.005051 -0.015665  0.001410  0.037406 -0.004129  0.031029
  1H   1px       -0.011067 -0.004759 -0.011962 -0.000364 -0.010293 -0.009118
  1H   1py       -0.011352 -0.002657  0.011721  0.029893  0.019897 -0.033530
  2H   1s         0.217760  0.141314 -0.117965 -0.561634 -0.551320  0.313425
  2H   2s         1.310018  0.849098 -0.712264  0.188178  0.190611 -0.108354
  2H   1pz        0.012244 -0.011004  0.001513  0.033785 -0.012550  0.032217
  2H   1px        0.000277  0.002538  0.016323  0.015001 -0.035873 -0.025827
  2H   1py        0.011448  0.012186 -0.002345  0.007543 -0.001115 -0.020406
  3H   1s        -0.152847  0.178849  0.161218 -0.036798 -0.008951 -0.847104
  3H   2s        -0.919546  1.076995  0.973011  0.012749  0.001750  0.289984
  3H   1pz       -0.003986 -0.000906  0.016175  0.037232 -0.008131  0.006281
  3H   1px        0.016122 -0.001426  0.003616  0.008120 -0.043514 -0.005516
  3H   1py       -0.000820 -0.016591 -0.001532  0.030556  0.021413 -0.009532
  4H   1s         0.100127 -0.212440  0.162419  0.778425 -0.218337  0.251389
  4H   2s         0.605104 -1.276114  0.974284 -0.264275  0.074681 -0.087006
  4H   1pz       -0.003778  0.009165 -0.013705  0.007109  0.000834  0.019493
  4H   1px        0.005477  0.013712  0.007412 -0.000493 -0.041357 -0.024045
  4H   1py       -0.015129  0.002877  0.005917  0.021257  0.023537 -0.035682
                     12        13        14        15        16        17   
                   0.49657   0.52053   0.52086   0.52102   0.64720   0.93156
                   0.00000   0.00000   0.00000   0.00000   0.00000   0.00000
                  --------  --------  --------  --------  --------  --------
  0C   1s         0.278957 -0.000845  0.000309  0.000526 -0.128516  0.000106
  0C   2s        -1.644278  0.003675 -0.001744 -0.000318  1.620987 -0.000970
  0C   3s         3.853996 -0.005888  0.004236 -0.005365 -5.584668  0.002766
  0C   1pz       -0.003986 -0.686296 -0.181433  0.560750 -0.002792 -0.000030
  0C   1px       -0.002157 -0.182065  0.884364  0.063046 -0.000733 -0.000085
  0C   1py        0.000273 -0.559844 -0.065006 -0.707909  0.001405  0.000081
  0C   2pz        0.007576  1.342011  0.354908 -1.096932  0.005834  0.000095
  0C   2px        0.003908  0.355950 -1.729742 -0.123466  0.001542 -0.000178
  0C   2py       -0.000455  1.094907  0.126882  1.384510 -0.003109  0.000067
  0C   1dz2      -0.000510 -0.104841  0.030580  0.004338 -0.000118 -0.002631
  0C   1dxz      -0.000205 -0.033233 -0.041317  0.041935 -0.000197 -0.297233
  0C   1dyz      -0.000444 -0.014844 -0.018599  0.085761  0.000004  0.263763
  0C   1dx2y2     0.000244 -0.018673 -0.105094 -0.036009 -0.000060  0.080817
  0C   1dxy      -0.000051 -0.040013  0.009619 -0.061010  0.000356  0.118283
  1H   1s         0.472856  0.148945 -0.550746 -0.097060  0.628571 -0.000074
  1H   2s        -1.113340 -0.537642  1.973439  0.362133  0.964335 -0.000416
  1H   1pz        0.009576 -0.028033 -0.027934  0.023361  0.002221 -0.312347
  1H   1px        0.084542  0.036178 -0.123111 -0.027118  0.020204  0.043030
  1H   1py       -0.003888 -0.029007  0.004282 -0.032602 -0.000604  0.153870
  2H   1s         0.470944  0.379243  0.242291  0.369288  0.627413 -0.000222
  2H   2s        -1.107238 -1.363136 -0.863805 -1.310096  0.969426 -0.000622
  2H   1pz        0.015905 -0.011216  0.005320  0.048146  0.003899  0.344188
  2H   1px       -0.026900 -0.045304  0.019434 -0.032187 -0.006529  0.027632
  2H   1py        0.078800  0.080119  0.064721  0.069275  0.018593 -0.061600
  3H   1s         0.472635 -0.003965  0.295691 -0.496343  0.629085  0.000010
  3H   2s        -1.112154  0.008073 -1.058667  1.789596  0.961475 -0.000750
  3H   1pz        0.053649 -0.033818  0.047827 -0.068900  0.013085 -0.040805
  3H   1px       -0.037385 -0.008567  0.003265  0.069091 -0.008914 -0.304739
  3H   1py       -0.054357 -0.026622 -0.060360  0.062506 -0.013185  0.168517
  4H   1s         0.467957 -0.535092  0.016059  0.238266  0.626559 -0.000153
  4H   2s        -1.097580  1.903368 -0.056743 -0.843394  0.972590 -0.000454
  4H   1pz       -0.079119  0.118323 -0.013161 -0.040447 -0.018492  0.008919
  4H   1px       -0.020105  0.029553  0.041362 -0.014116 -0.004706  0.234354
  4H   1py       -0.020512  0.012603 -0.004471 -0.051703 -0.005139 -0.260766
                     18        19        20        21        22        23   
                   0.93160   1.37514   1.37521   1.37525   1.57823   1.57837
                   0.00000   0.00000   0.00000   0.00000   0.00000   0.00000
                  --------  --------  --------  --------  --------  --------
  0C   1s        -0.000071 -0.000021  0.000112 -0.000037 -0.000050  0.000057
  0C   2s         0.000680  0.000164 -0.000934  0.000310  0.000451 -0.000502
  0C   3s        -0.002049 -0.000427  0.002318 -0.000711 -0.001408  0.001283
  0C   1pz       -0.000149 -0.000042 -0.000005  0.000027 -0.210118  0.080824
  0C   1px        0.000123  0.000026 -0.000003  0.000021 -0.014634  0.146468
  0C   1py       -0.000173 -0.000069  0.000052  0.000043 -0.111766 -0.170932
  0C   2pz        0.000450  0.000037  0.000170 -0.000063  0.763817 -0.293454
  0C   2px       -0.000245  0.000156  0.000077  0.000040  0.052902 -0.531076
  0C   2py        0.000410 -0.000137 -0.000215 -0.000012  0.406731  0.619927
  0C   1dz2       0.169924  0.000157 -0.000113  0.000121 -0.332655  0.051386
  0C   1dxz      -0.180285  0.000043  0.000041  0.000074 -0.157080  0.026872
  0C   1dyz      -0.095427 -0.000150  0.000058  0.000031 -0.111565  0.196718
  0C   1dx2y2     0.108690  0.000155  0.000138 -0.000045 -0.093389 -0.312164
  0C   1dxy      -0.310378  0.000252 -0.000055  0.000187 -0.089403 -0.157535
  1H   1s         0.000182 -0.000009 -0.000309  0.000107 -0.067944  0.328085
  1H   2s         0.000450 -0.000032 -0.000356  0.000030 -0.012917  0.062920
  1H   1pz       -0.154688 -0.541883 -0.307359 -0.048450 -0.358857  0.144166
  1H   1px        0.003750  0.052263  0.056105 -0.010609 -0.037657  0.310439
  1H   1py       -0.314865 -0.231657  0.459191 -0.361201 -0.189989 -0.292312
  2H   1s         0.000025  0.000384 -0.000115  0.000131 -0.283442 -0.383549
  2H   2s         0.000127 -0.000057 -0.000331  0.000047 -0.053958 -0.074458
  2H   1pz        0.005916  0.412926 -0.206197 -0.410014 -0.367583  0.123331
  2H   1px       -0.331356  0.291079 -0.331881  0.401566 -0.007628  0.271715
  2H   1py       -0.114005  0.013871 -0.070389  0.221308 -0.240104 -0.357599
  3H   1s         0.000067 -0.000149 -0.000188  0.000051 -0.111956  0.194565
  3H   2s         0.000379  0.000219 -0.000513  0.000161 -0.021394  0.037549
  3H   1pz        0.268397  0.066201  0.354198  0.327392 -0.370833  0.160628
  3H   1px        0.080640  0.208575  0.476275 -0.222550 -0.015401  0.232389
  3H   1py        0.210904 -0.077374  0.024741  0.477256 -0.176947 -0.313304
  4H   1s         0.000172 -0.000009 -0.000078 -0.000085  0.463693 -0.139393
  4H   2s         0.000670  0.000108 -0.000378  0.000236  0.089368 -0.026992
  4H   1pz       -0.119770  0.062704  0.159134  0.131165 -0.439694  0.162086
  4H   1px        0.247021 -0.552107 -0.200565 -0.168530 -0.045735  0.254598
  4H   1py        0.217917  0.295222 -0.413153 -0.337456 -0.212174 -0.283303
                     24        25        26        27        28        29   
                   1.57868   1.93835   1.93841   1.93872   2.29861   2.29905
                   0.00000   0.00000   0.00000   0.00000   0.00000   0.00000
                  --------  --------  --------  --------  --------  --------
  0C   1s         0.000001  0.000014 -0.000028  0.000017 -0.000191  0.000955
  0C   2s         0.000022 -0.000048  0.000194 -0.000192  0.001169 -0.005571
  0C   3s        -0.000352 -0.000285 -0.000054  0.000634  0.000201 -0.003304
  0C   1pz       -0.079373  0.456220  0.056286 -0.127445 -0.000002  0.000506
  0C   1px        0.188887  0.055787  0.326462  0.343388 -0.000185  0.000636
  0C   1py        0.124317  0.127924 -0.343251  0.305539  0.000735 -0.000154
  0C   2pz        0.287139  0.846918  0.105099 -0.237510  0.000212  0.000518
  0C   2px       -0.683506  0.103279  0.606655  0.637619 -0.000278 -0.000518
  0C   2py       -0.449830  0.237477 -0.637119  0.568126  0.000414  0.000386
  0C   1dz2       0.156417  0.312815  0.006156  0.180326  0.410042 -0.156246
  0C   1dxz      -0.166387  0.168496 -0.025217 -0.146431 -0.698799 -0.563239
  0C   1dyz      -0.201917  0.161210  0.140913 -0.202749  0.000804  0.723973
  0C   1dx2y2    -0.202869  0.043723 -0.338053 -0.152299  0.334785  0.101497
  0C   1dxy       0.173381  0.039521 -0.144046  0.192772 -0.649371  0.560632
  1H   1s         0.348595 -0.043281 -0.147390 -0.133149 -0.000115  0.001058
  1H   2s         0.067358 -0.153983 -0.522753 -0.472319  0.000103  0.001162
  1H   1pz       -0.126513 -0.572699  0.019889  0.253023  0.327201  0.312872
  1H   1px        0.385836  0.166215  0.382795  0.282208 -0.023356 -0.052652
  1H   1py        0.207437 -0.179151  0.414950 -0.435255  0.316590 -0.327698
  2H   1s         0.082023 -0.080254  0.174949 -0.064467 -0.000821  0.001735
  2H   2s         0.015551 -0.284924  0.621736 -0.228292 -0.000553  0.000599
  2H   1pz       -0.131144 -0.514514 -0.261147  0.236523 -0.159743 -0.418613
  2H   1px        0.314552 -0.214540 -0.121751 -0.564915  0.392966 -0.179366
  2H   1py        0.224857  0.246413 -0.453007 -0.070373  0.168119  0.022345
  3H   1s        -0.428352 -0.077688 -0.047552  0.181718  0.000086  0.001348
  3H   2s        -0.082293 -0.276208 -0.169100  0.644224 -0.000039  0.000751
  3H   1pz       -0.186179 -0.326402  0.093230 -0.470690 -0.310190  0.167352
  3H   1px        0.355444 -0.262677 -0.545488 -0.009935  0.036541  0.409681
  3H   1py        0.262833 -0.444410  0.282347  0.241681 -0.332689 -0.111574
  4H   1s        -0.002059  0.201363  0.019907  0.015691 -0.000195  0.002167
  4H   2s        -0.000378  0.715398  0.070109  0.055933  0.000086  0.001295
  4H   1pz       -0.133699  0.452415  0.028716  0.250717  0.142287 -0.060966
  4H   1px        0.319711  0.194045 -0.403860 -0.430793 -0.405909 -0.175764
  4H   1py        0.210403  0.107352  0.478627 -0.380773 -0.151189  0.415963
                     30        31        32        33   
                   2.36271   2.66555   2.66616   2.66655
                   0.00000   0.00000   0.00000   0.00000
                  --------  --------  --------  --------
  0C   1s        -0.292272 -0.000079  0.000068 -0.000000
  0C   2s         1.687183  0.000438 -0.000380 -0.000072
  0C   3s         1.217778  0.000246 -0.000196  0.000672
  0C   1pz       -0.000251  0.879381 -0.519449 -0.057923
  0C   1px        0.000127 -0.096111 -0.049340 -1.016900
  0C   1py        0.000088  0.513824  0.879740 -0.091172
  0C   2pz       -0.000120  0.541693 -0.320040 -0.035668
  0C   2px       -0.000105 -0.059197 -0.029945 -0.627474
  0C   2py        0.000165  0.316439  0.542431 -0.055973
  0C   1dz2      -0.000563 -1.013403 -0.108371  0.683919
  0C   1dxz      -0.001161 -0.554942  0.413788 -0.318494
  0C   1dyz       0.002551 -0.347195  0.933325 -0.117814
  0C   1dx2y2     0.000225 -0.500735 -0.441465 -1.080356
  0C   1dxy       0.002105 -0.300967 -0.740387  0.217657
  1H   1s        -0.516836  0.018237  0.155596  1.065657
  1H   2s        -0.325664  0.008333  0.071706  0.492694
  1H   1pz        0.090069  0.049214 -0.049958 -0.135751
  1H   1px        0.772641 -0.025154 -0.170408 -1.205494
  1H   1py       -0.035981  0.031032  0.058762  0.045981
  2H   1s        -0.516859 -0.712132 -0.772235 -0.237981
  2H   2s        -0.325793 -0.329032 -0.356922 -0.110375
  2H   1pz        0.147964  0.199683  0.129747  0.045759
  2H   1px       -0.247019 -0.249707 -0.267827 -0.141358
  2H   1py        0.723438  0.747309  0.829036  0.234221
  3H   1s        -0.516599 -0.285196  0.915124 -0.491725
  3H   2s        -0.325569 -0.131862  0.423057 -0.227323
  3H   1pz        0.493424  0.247417 -0.658118  0.333888
  3H   1px       -0.339406 -0.141097  0.431365 -0.292573
  3H   1py       -0.497104 -0.167084  0.684786 -0.345505
  4H   1s        -0.517041  0.978606 -0.298128 -0.336252
  4H   2s        -0.325774  0.452276 -0.137575 -0.155548
  4H   1pz       -0.732036  1.048127 -0.334075 -0.345710
  4H   1px       -0.185855  0.247156 -0.079917 -0.146575
  4H   1py       -0.190336  0.291183 -0.027552 -0.094815
             **** ENERGY FILE WAS UPDATED (metan.en.tmp) ****
Finished Guess after   0.0 sec
Maximum memory used throughout the entire GUESS-calculation: 5.6 MB

-------------------------------------------------------------------------------------------
                                      ORCA LEAN-SCF
                              memory conserving SCF solver
-------------------------------------------------------------------------------------------

----------------------------------------D-I-I-S--------------------------------------------
Iteration    Energy (Eh)           Delta-E    RMSDP     MaxDP     DIISErr   Damp  Time(sec)
-------------------------------------------------------------------------------------------
               ***  Starting incremental Fock matrix formation  ***
    1    -40.3830156753828504     0.00e+00  7.08e-03  8.50e-02  1.91e-01  0.700   0.0

                         ----------------------------
                         !        ITERATION     0   !
                         ----------------------------
   Total Energy        :     -40.383015675383 Eh
   Energy Change       :      40.383015675383 Eh
   MAX-DP              :       0.084980614877
   RMS-DP              :       0.007079718710
   Actual Damping      :       0.7000
   Actual Level Shift  :       0.2500 Eh
   alpha HOMO          :      -0.2817 Eh
   alpha LUMO          :       0.3549 Eh
   Int. Num. El.       :     9.99999943 (UP=    4.99999971 DN=    4.99999971)
   Exchange            :    -5.32311227 Eh
   Correlation         :    -0.35801575 Eh
   DIIS-Error          :       0.191440620959

    2    -40.4155366559537299    -3.25e-02  5.02e-03  5.19e-02  9.88e-02  0.700   0.0

                         ----------------------------
                         !        ITERATION     1   !
                         ----------------------------
   Total Energy        :     -40.415536655954 Eh
   Energy Change       :       0.032520980571 Eh
   MAX-DP              :       0.051856683547
   RMS-DP              :       0.005022630167
   Actual Damping      :       0.7000
   Actual Level Shift  :       0.2500 Eh
   alpha HOMO          :      -0.3314 Eh
   alpha LUMO          :       0.3408 Eh
   Int. Num. El.       :     9.99999926 (UP=    4.99999963 DN=    4.99999963)
   Exchange            :    -5.25221100 Eh
   Correlation         :    -0.35415046 Eh
   DIIS-Error          :       0.098816574588

                               ***Turning on AO-DIIS***
    3    -40.4285631133852377    -1.30e-02  1.98e-03  1.35e-02  3.59e-02  0.700   0.0

                         ----------------------------
                         !        ITERATION     2   !
                         ----------------------------
   Total Energy        :     -40.428563113385 Eh
   Energy Change       :       0.013026457432 Eh
   MAX-DP              :       0.013452085469
   RMS-DP              :       0.001980096655
   Actual Damping      :       0.7000
   Actual Level Shift  :       0.2500 Eh
   alpha HOMO          :      -0.3808 Eh
   alpha LUMO          :       0.3236 Eh
   Int. Num. El.       :     9.99999915 (UP=    4.99999958 DN=    4.99999958)
   Exchange            :    -5.20393062 Eh
   Correlation         :    -0.35143521 Eh
   DIIS-Error          :       0.035886224723
   DIIS coefficients:
     -0.11749  -0.20686   1.32435

    4    -40.4358415198876742    -7.28e-03  3.09e-03  2.06e-02  1.64e-02  0.000   0.0

                         ----------------------------
                         !        ITERATION     3   !
                         ----------------------------
   Total Energy        :     -40.435841519888 Eh
   Energy Change       :       0.007278406502 Eh
   MAX-DP              :       0.020587322411
   RMS-DP              :       0.003091058237
   Actual Damping      :       0.0000
   Actual Level Shift  :       0.2500 Eh
   alpha HOMO          :      -0.3831 Eh
   alpha LUMO          :       0.3229 Eh
   Int. Num. El.       :     9.99999912 (UP=    4.99999956 DN=    4.99999956)
   Exchange            :    -5.18807142 Eh
   Correlation         :    -0.35057593 Eh
   DIIS-Error          :       0.016392801276
   DIIS coefficients:
     -0.01883  -0.06203  -0.26874   1.34960

    5    -40.4515233101895220    -1.57e-02  6.16e-04  3.62e-03  8.40e-03  0.000   0.0

                         ----------------------------
                         !        ITERATION     4   !
                         ----------------------------
   Total Energy        :     -40.451523310190 Eh
   Energy Change       :       0.015681790302 Eh
   MAX-DP              :       0.003615531105
   RMS-DP              :       0.000615665733
   Actual Damping      :       0.0000
   Actual Level Shift  :       0.2500 Eh
   alpha HOMO          :      -0.3850 Eh
   alpha LUMO          :       0.3222 Eh
   Int. Num. El.       :     9.99999907 (UP=    4.99999953 DN=    4.99999953)
   Exchange            :    -5.16674814 Eh
   Correlation         :    -0.34951230 Eh
   DIIS-Error          :       0.008399539666
   DIIS coefficients:
      0.01782   0.03038   0.04248   0.01455   0.89477

                              *** Initializing SOSCF ***
---------------------------------------S-O-S-C-F--------------------------------------
Iteration    Energy (Eh)           Delta-E    RMSDP     MaxDP     MaxGrad    Time(sec)
--------------------------------------------------------------------------------------
    6    -40.4516663139442656    -1.43e-04  2.27e-04  1.38e-03  2.32e-03     0.0

                         ----------------------------
                         !        ITERATION     5   !
                         ----------------------------
   Total Energy        :     -40.451666313944 Eh
   Energy Change       :       0.000143003755 Eh
   MAX-DP              :       0.001377580776
   RMS-DP              :       0.000227316775
   Orbital gradient    :       0.002319818835
   Orbital Rotation    :       0.002319818835
   alpha HOMO          :      -0.3865 Eh
   alpha LUMO          :       0.0717 Eh
   Int. Num. El.       :     9.99999907 (UP=    4.99999954 DN=    4.99999954)
   Exchange            :    -5.17145953 Eh
   Correlation         :    -0.34980067 Eh

               *** Restarting incremental Fock matrix formation ***
    7    -40.4516888426734056    -2.25e-05  1.56e-04  9.41e-04  3.61e-04     0.0

                         ----------------------------
                         !        ITERATION     6   !
                         ----------------------------
   Total Energy        :     -40.451688842673 Eh
   Energy Change       :       0.000022528729 Eh
   MAX-DP              :       0.000941401295
   RMS-DP              :       0.000155554199
   Orbital gradient    :       0.000361335861
   Orbital Rotation    :       0.000683357112
   alpha HOMO          :      -0.3865 Eh
   alpha LUMO          :       0.0717 Eh
   Int. Num. El.       :     9.99999907 (UP=    4.99999954 DN=    4.99999954)
   Exchange            :    -5.17282981 Eh
   Correlation         :    -0.34988759 Eh

    8    -40.4516888715500826    -2.89e-08  5.57e-05  6.57e-04  3.59e-04     0.0

                         ----------------------------
                         !        ITERATION     7   !
                         ----------------------------
   Total Energy        :     -40.451688871550 Eh
   Energy Change       :       0.000000028877 Eh
   MAX-DP              :       0.000657497123
   RMS-DP              :       0.000055709631
   Orbital gradient    :       0.000359197765
   Orbital Rotation    :       0.000238719683
   alpha HOMO          :      -0.3865 Eh
   alpha LUMO          :       0.0717 Eh
   Int. Num. El.       :     9.99999908 (UP=    4.99999954 DN=    4.99999954)
   Exchange            :    -5.17380871 Eh
   Correlation         :    -0.34995072 Eh

    9    -40.4516898857479745    -1.01e-06  2.57e-06  2.16e-05  7.25e-06     0.0

                         ----------------------------
                         !        ITERATION     8   !
                         ----------------------------
   Total Energy        :     -40.451689885748 Eh
   Energy Change       :       0.000001014198 Eh
   MAX-DP              :       0.000021631352
   RMS-DP              :       0.000002570150
   Orbital gradient    :       0.000007249666
   Orbital Rotation    :       0.000005173835
   alpha HOMO          :      -0.3865 Eh
   alpha LUMO          :       0.0717 Eh
   Int. Num. El.       :     9.99999907 (UP=    4.99999954 DN=    4.99999954)
   Exchange            :    -5.17329438 Eh
   Correlation         :    -0.34991893 Eh

   10    -40.4516898854023381     3.46e-10  3.18e-07  2.78e-06  7.22e-07     0.0
                 **** Energy Check signals convergence ****

                         ----------------------------
                         !        ITERATION     9   !
                         ----------------------------
   Total Energy        :     -40.451689885402 Eh
   Energy Change       :      -0.000000000346 Eh
   MAX-DP              :       0.000002775894
   RMS-DP              :       0.000000318388
   Orbital gradient    :       0.000000722023
   Orbital Rotation    :       0.000000978771
   alpha HOMO          :      -0.3865 Eh
   alpha LUMO          :       0.0717 Eh
   Int. Num. El.       :     9.99999907 (UP=    4.99999954 DN=    4.99999954)
   Exchange            :    -5.17328759 Eh
   Correlation         :    -0.34991888 Eh


               *****************************************************
               *                     SUCCESS                       *
               *           SCF CONVERGED AFTER  10 CYCLES          *
               *****************************************************

Recomputing exchange energy using gridx3       ... done (    0.051 sec)
Old exchange energy                            :     -1.308995583 Eh
New exchange energy                            :     -1.308998119 Eh
Exchange energy change after final integration :     -0.000002536 Eh
Total energy after final integration           :    -40.451692421 Eh
             **** ENERGY FILE WAS UPDATED (metan.en.tmp) ****

----------------
TOTAL SCF ENERGY
----------------

Total Energy       :        -40.45169242134249 Eh           -1100.74651 eV

Components:
Nuclear Repulsion  :         13.20041086182277 Eh             359.20144 eV
Electronic Energy  :        -53.65210074696785 Eh           -1459.94788 eV
One Electron Energy:        -79.32258810725835 Eh           -2158.47736 eV
Two Electron Energy:         25.67048736029050 Eh             698.52947 eV

Virial components:
Potential Energy   :        -80.23647752888169 Eh           -2183.34555 eV
Kinetic Energy     :         39.78478510753919 Eh            1082.59904 eV
Virial Ratio       :          2.01676287334469

DFT components:
N(Alpha)           :        4.999999537209 electrons
N(Beta)            :        4.999999537209 electrons
N(Total)           :        9.999999074417 electrons
E(X)               :       -5.173288309780 Eh       
E(C)               :       -0.349918899802 Eh       
E(XC)              :       -5.523207209583 Eh       

---------------
SCF CONVERGENCE
---------------

  Last Energy change         ...   -3.4564e-10  Tolerance :   1.0000e-08
  Last MAX-Density change    ...    2.7759e-06  Tolerance :   1.0000e-07
  Last RMS-Density change    ...    3.1839e-07  Tolerance :   5.0000e-09
  Last DIIS Error            ...    2.3198e-03  Tolerance :   5.0000e-07
  Last Orbital Gradient      ...    7.2202e-07  Tolerance :   1.0000e-05
  Last Orbital Rotation      ...    9.7877e-07  Tolerance :   1.0000e-05


----------------
ORBITAL ENERGIES
----------------

  NO   OCC          E(Eh)            E(eV) 
   0   2.0000     -10.176356      -276.9127 
   1   2.0000      -0.677181       -18.4270 
   2   2.0000      -0.385053       -10.4778 
   3   2.0000      -0.385044       -10.4776 
   4   2.0000      -0.385040       -10.4775 
   5   0.0000       0.072238         1.9657 
   6   0.0000       0.142987         3.8909 
   7   0.0000       0.142989         3.8909 
   8   0.0000       0.142992         3.8910 
   9   0.0000       0.421170        11.4606 
  10   0.0000       0.421193        11.4613 
  11   0.0000       0.421202        11.4615 
  12   0.0000       0.644113        17.5272 
  13   0.0000       0.674277        18.3480 
  14   0.0000       0.674305        18.3488 
  15   0.0000       0.674320        18.3492 
  16   0.0000       0.769989        20.9525 
  17   0.0000       1.099958        29.9314 
  18   0.0000       1.099962        29.9315 
  19   0.0000       1.526344        41.5339 
  20   0.0000       1.526347        41.5340 
  21   0.0000       1.526358        41.5343 
  22   0.0000       1.746107        47.5140 
  23   0.0000       1.746126        47.5145 
  24   0.0000       1.746131        47.5146 
  25   0.0000       2.112537        57.4851 
  26   0.0000       2.112546        57.4853 
  27   0.0000       2.112567        57.4859 
  28   0.0000       2.502668        68.1010 
  29   0.0000       2.502684        68.1015 
  30   0.0000       2.554442        69.5099 
  31   0.0000       2.882632        78.4404 
  32   0.0000       2.882654        78.4410 
  33   0.0000       2.882664        78.4413 
------------------
MOLECULAR ORBITALS (RHF, ROHF)
------------------
                      0         1         2         3         4         5   
                 -10.17636  -0.67718  -0.38505  -0.38504  -0.38504   0.07224
                   2.00000   2.00000   2.00000   2.00000   2.00000   0.00000
                  --------  --------  --------  --------  --------  --------
  0C   1s         0.987919  0.249998  0.000000  0.000001  0.000004  0.152012
  0C   2s         0.050919 -0.490229  0.000001  0.000007 -0.000019 -0.231044
  0C   3s        -0.039099 -0.117439  0.000006 -0.000051 -0.000005 -2.833178
  0C   1pz       -0.000001 -0.000004  0.266582 -0.258170 -0.236420 -0.000012
  0C   1px       -0.000002 -0.000010  0.136393  0.350290 -0.228703 -0.000033
  0C   1py        0.000001  0.000000  0.322404  0.065287  0.292248  0.000009
  0C   2pz       -0.000010 -0.000037  0.111237 -0.107683 -0.098634 -0.000062
  0C   2px        0.000006  0.000025  0.056873  0.146099 -0.095438  0.000005
  0C   2py        0.000002  0.000019  0.134527  0.027215  0.121865  0.000034
  0C   1dz2       0.000002  0.000002 -0.017008 -0.000835  0.004608  0.000001
  0C   1dxz       0.000002  0.000005 -0.003168  0.009854  0.003566  0.000003
  0C   1dyz       0.000002  0.000007  0.000529  0.009014  0.011220  0.000006
  0C   1dx2y2    -0.000000  0.000001 -0.001808  0.013152 -0.012520  0.000001
  0C   1dxy      -0.000000 -0.000002 -0.008266 -0.004349 -0.007380 -0.000000
  1H   1s        -0.003236 -0.176810  0.133216  0.276961 -0.234815  0.027850
  1H   2s         0.007374 -0.039562  0.060093  0.124918 -0.105859  1.048720
  1H   1pz        0.000306  0.002414  0.006876 -0.009705 -0.005226  0.000682
  1H   1px        0.002637  0.020857 -0.004602 -0.007596  0.008454  0.005890
  1H   1py       -0.000118 -0.000938  0.009912  0.002738  0.007952 -0.000263
  2H   1s        -0.003234 -0.176806  0.270293 -0.087545  0.262426  0.027863
  2H   2s         0.007374 -0.039568  0.121806 -0.039475  0.118391  1.048600
  2H   1pz        0.000510  0.004027  0.004494 -0.006534 -0.010269  0.001134
  2H   1px       -0.000842 -0.006651  0.009611  0.008546 -0.001337 -0.001881
  2H   1py        0.002469  0.019528 -0.006868  0.007241 -0.007287  0.005512
  3H   1s        -0.003233 -0.176803 -0.085053 -0.315107 -0.207544  0.027870
  3H   2s         0.007384 -0.039495 -0.038343 -0.142075 -0.093615  1.048775
  3H   1pz        0.001682  0.013303  0.011392  0.005399  0.001596  0.003756
  3H   1px       -0.001162 -0.009197  0.001600  0.001345 -0.012688 -0.002593
  3H   1py       -0.001695 -0.013413  0.005979 -0.011207 -0.000015 -0.003786
  4H   1s        -0.003237 -0.176810 -0.318457  0.125699  0.179925  0.027853
  4H   2s         0.007368 -0.039587 -0.143571  0.056683  0.081114  1.048547
  4H   1pz       -0.002498 -0.019749 -0.011657  0.000081  0.004050 -0.005577
  4H   1px       -0.000635 -0.005010 -0.000922  0.012308 -0.003958 -0.001415
  4H   1py       -0.000655 -0.005174  0.004410  0.003950  0.011528 -0.001462
                      6         7         8         9        10        11   
                   0.14299   0.14299   0.14299   0.42117   0.42119   0.42120
                   0.00000   0.00000   0.00000   0.00000   0.00000   0.00000
                  --------  --------  --------  --------  --------  --------
  0C   1s        -0.000000  0.000009  0.000008 -0.000012  0.000012 -0.000010
  0C   2s         0.000001  0.000017  0.000013  0.000088 -0.000102  0.000111
  0C   3s        -0.000010 -0.000231 -0.000217 -0.000235  0.000277 -0.000383
  0C   1pz       -0.007505  0.377381  0.029986 -0.187785  0.184032  0.144923
  0C   1px        0.329007 -0.008332  0.187254  0.131094 -0.071405  0.260486
  0C   1py        0.187282  0.029758 -0.327741  0.194214  0.226147 -0.035798
  0C   2pz       -0.024510  1.231794  0.097860  0.733729 -0.719205 -0.566285
  0C   2px        1.073881 -0.027196  0.611177 -0.512277  0.278999 -1.017869
  0C   2py        0.611295  0.097123 -1.069766 -0.758882 -0.883772  0.139647
  0C   1dz2       0.007706  0.008434 -0.002077 -0.009471 -0.057058 -0.053908
  0C   1dxz      -0.003485  0.006309 -0.000265  0.041138 -0.026663 -0.002137
  0C   1dyz      -0.004000  0.006767  0.005311  0.060385 -0.000845 -0.022810
  0C   1dx2y2    -0.006917  0.002003 -0.009619  0.015686 -0.049187  0.063432
  0C   1dxy       0.005052 -0.000426 -0.005987 -0.042160 -0.032705  0.000950
  1H   1s        -0.107697 -0.011450 -0.069215  0.293618 -0.175915  0.813692
  1H   2s        -1.661898 -0.176499 -1.067877 -0.054789  0.032845 -0.152096
  1H   1pz       -0.001508  0.008873 -0.000135  0.028276 -0.027201 -0.016918
  1H   1px       -0.003627 -0.001418 -0.002909 -0.006787  0.003044 -0.004071
  1H   1py        0.004988  0.000764 -0.007497 -0.028351 -0.032075  0.003609
  2H   1s        -0.023250 -0.034827  0.121521  0.302748  0.788052 -0.258083
  2H   2s        -0.358873 -0.537383  1.875160 -0.056470 -0.147492  0.048267
  2H   1pz       -0.000660  0.008297  0.003217  0.029278 -0.020146 -0.022800
  2H   1px        0.008650  0.000984  0.000341 -0.022706 -0.000029 -0.033960
  2H   1py        0.002152 -0.002767  0.004307 -0.016238 -0.002251 -0.004749
  3H   1s         0.091083 -0.075888 -0.049628 -0.882701  0.010029  0.001441
  3H   2s         1.405604 -1.170962 -0.765850  0.164973 -0.001966 -0.000126
  3H   1pz        0.006020  0.003850 -0.002660  0.003899 -0.026107 -0.020729
  3H   1px        0.003574  0.003370  0.006810 -0.002861  0.010045 -0.037336
  3H   1py       -0.001777  0.005918 -0.004424 -0.004625 -0.032667  0.005076
  4H   1s         0.039866  0.122164 -0.002668  0.286249 -0.622117 -0.557079
  4H   2s         0.615187  1.885132 -0.041164 -0.053440  0.116330  0.104350
  4H   1pz       -0.004205 -0.003321  0.000985  0.015825 -0.002303  0.000789
  4H   1px        0.006837 -0.003328  0.004542 -0.021578  0.016333 -0.031845
  4H   1py        0.003420 -0.002521 -0.007758 -0.030706 -0.026101  0.010754
                     12        13        14        15        16        17   
                   0.64411   0.67428   0.67431   0.67432   0.76999   1.09996
                   0.00000   0.00000   0.00000   0.00000   0.00000   0.00000
                  --------  --------  --------  --------  --------  --------
  0C   1s        -0.308198  0.000108  0.000157 -0.000008  0.094866 -0.000000
  0C   2s         1.852118 -0.000461 -0.000786  0.000054 -1.402612 -0.000004
  0C   3s        -4.340730  0.000694  0.001527 -0.000144  4.993867  0.000010
  0C   1pz       -0.000451 -0.630888 -0.357351  0.597774 -0.000172 -0.000003
  0C   1px        0.000400  0.020406  0.796723  0.497848  0.000130  0.000007
  0C   1py        0.000075  0.696106 -0.347234  0.527162  0.000073 -0.000014
  0C   2pz        0.000760  1.095881  0.620762 -1.038400  0.000272  0.000005
  0C   2px       -0.000672 -0.035470 -1.383981 -0.864828 -0.000190 -0.000012
  0C   2py       -0.000131 -1.209187  0.603177 -0.915747 -0.000106  0.000016
  0C   1dz2      -0.000012 -0.007233 -0.008066  0.125572  0.000003 -0.138680
  0C   1dxz      -0.000055 -0.054946 -0.052500  0.018693 -0.000017  0.011960
  0C   1dyz      -0.000064 -0.101601 -0.014825  0.007470 -0.000011  0.196098
  0C   1dx2y2    -0.000064  0.028147 -0.125442 -0.021864 -0.000015 -0.051526
  0C   1dxy       0.000011  0.069063 -0.013289  0.047943  0.000014  0.304519
  1H   1s        -0.368964  0.051616 -0.471435 -0.332336 -0.684126 -0.000000
  1H   2s         1.136529 -0.165075  1.514524  1.067450 -0.804247 -0.000003
  1H   1pz       -0.011810 -0.037215 -0.043990  0.022261 -0.004429 -0.017350
  1H   1px       -0.101831  0.021639 -0.136735 -0.100368 -0.038171  0.018306
  1H   1py        0.004577  0.042741 -0.013375  0.038968  0.001732  0.362598
  2H   1s        -0.368550 -0.319963  0.396727 -0.275517 -0.684095 -0.000012
  2H   2s         1.135458  1.028142 -1.273704  0.884880 -0.804401 -0.000005
  2H   1pz       -0.019675 -0.064035  0.007909  0.016410 -0.007388  0.168005
  2H   1px        0.032458  0.041668 -0.000075  0.065978  0.012151  0.314123
  2H   1py       -0.095238 -0.074994  0.125231 -0.069074 -0.035717  0.072265
  3H   1s        -0.368325  0.526035  0.218180  0.108537 -0.683921 -0.000016
  3H   2s         1.134772 -1.688662 -0.700182 -0.348558 -0.804849  0.000011
  3H   1pz       -0.064874  0.093238  0.032665  0.064889 -0.024306 -0.263622
  3H   1px        0.044866 -0.090560  0.011881  0.012254  0.016829 -0.226680
  3H   1py        0.065385 -0.090260 -0.077298  0.005406  0.024510 -0.105962
  4H   1s        -0.368882 -0.256569 -0.142260  0.499256 -0.684171 -0.000006
  4H   2s         1.136383  0.824484  0.457469 -1.603610 -0.804160  0.000004
  4H   1pz        0.096388  0.056642  0.030975 -0.149666  0.036134  0.112976
  4H   1px        0.024491  0.025683  0.063504 -0.016256  0.009182 -0.105753
  4H   1py        0.025267  0.068857 -0.007786 -0.015968  0.009468 -0.328885
                     18        19        20        21        22        23   
                   1.09996   1.52634   1.52635   1.52636   1.74611   1.74613
                   0.00000   0.00000   0.00000   0.00000   0.00000   0.00000
                  --------  --------  --------  --------  --------  --------
  0C   1s        -0.000001 -0.000003  0.000008  0.000006 -0.000003 -0.000002
  0C   2s         0.000013  0.000019 -0.000047 -0.000034  0.000003  0.000003
  0C   3s        -0.000041 -0.000052  0.000131  0.000091  0.000006 -0.000021
  0C   1pz        0.000007  0.000002 -0.000005  0.000006  0.116378  0.126502
  0C   1px        0.000003  0.000006 -0.000007 -0.000000 -0.123809 -0.096853
  0C   1py       -0.000001 -0.000013  0.000000  0.000002 -0.158172  0.168898
  0C   2pz       -0.000012 -0.000013  0.000015 -0.000021 -0.442106 -0.480455
  0C   2px       -0.000000 -0.000028  0.000028 -0.000004  0.470381  0.367913
  0C   2py       -0.000004  0.000038 -0.000011  0.000000  0.600903 -0.641510
  0C   1dz2       0.074445 -0.000001 -0.000009  0.000002 -0.086714  0.184333
  0C   1dxz      -0.321828  0.000002  0.000006  0.000003  0.154846  0.113159
  0C   1dyz       0.170552  0.000009 -0.000001  0.000003  0.228405 -0.000967
  0C   1dx2y2     0.114399 -0.000017  0.000012  0.000001  0.082912  0.246609
  0C   1dxy      -0.043919 -0.000006  0.000003 -0.000001 -0.178634  0.121839
  1H   1s         0.000001  0.000019 -0.000026 -0.000009 -0.198704 -0.172862
  1H   2s         0.000005  0.000020 -0.000033 -0.000009 -0.056897 -0.049468
  1H   1pz       -0.360656 -0.141939  0.386975 -0.469679  0.220831  0.240525
  1H   1px        0.040828  0.032902 -0.059664  0.036849 -0.259568 -0.204989
  1H   1py       -0.019330  0.366504 -0.331494 -0.388203 -0.302604  0.324992
  2H   1s         0.000005 -0.000017  0.000000 -0.000004 -0.165817  0.410672
  2H   2s         0.000015 -0.000003 -0.000020 -0.000018 -0.047477  0.117546
  2H   1pz        0.314699  0.457489  0.226173  0.347479  0.219831  0.251507
  2H   1px       -0.142248 -0.368024  0.191278  0.429060 -0.231808 -0.200375
  2H   1py       -0.113321 -0.219645  0.018463  0.074384 -0.320724  0.366589
  3H   1s        -0.000007  0.000015 -0.000010 -0.000000  0.443833  0.028445
  3H   2s         0.000021  0.000015 -0.000026 -0.000014  0.127065  0.008146
  3H   1pz        0.098305 -0.233904 -0.422121  0.064956  0.254635  0.244737
  3H   1px       -0.235381  0.346761 -0.442800  0.059716 -0.259276 -0.187259
  3H   1py        0.258919 -0.469790 -0.114943  0.023465 -0.335102  0.322073
  4H   1s         0.000004 -0.000002 -0.000002 -0.000017 -0.079322 -0.266253
  4H   2s        -0.000005  0.000007 -0.000016 -0.000021 -0.022697 -0.076205
  4H   1pz       -0.052356 -0.081634 -0.191044  0.057275  0.231676  0.270602
  4H   1px        0.336801 -0.011609  0.311149 -0.525627 -0.235539 -0.178813
  4H   1py       -0.126273  0.322877  0.427996  0.290380 -0.301428  0.331405
                     24        25        26        27        28        29   
                   1.74613   2.11254   2.11255   2.11257   2.50267   2.50268
                   0.00000   0.00000   0.00000   0.00000   0.00000   0.00000
                  --------  --------  --------  --------  --------  --------
  0C   1s         0.000001 -0.000001 -0.000003 -0.000003 -0.000033  0.000029
  0C   2s        -0.000018  0.000001  0.000026  0.000035  0.000186 -0.000169
  0C   3s         0.000058  0.000009 -0.000027 -0.000064  0.000188 -0.000145
  0C   1pz       -0.156087 -0.309725  0.208196  0.378362 -0.000002 -0.000009
  0C   1px       -0.170844 -0.369788 -0.368364 -0.100023  0.000010  0.000000
  0C   1py        0.018902 -0.223068  0.321546 -0.359563  0.000014  0.000005
  0C   2pz        0.592818 -0.471708  0.317085  0.576222  0.000018 -0.000002
  0C   2px        0.648954 -0.563135 -0.560968 -0.152317 -0.000007  0.000006
  0C   2py       -0.071792 -0.339718  0.489712 -0.547590  0.000001  0.000007
  0C   1dz2      -0.247284 -0.351753  0.099643  0.015242  0.076038 -0.436778
  0C   1dxz      -0.052724 -0.030806  0.131227  0.182860  0.692526  0.585905
[...]
                   0.00000   0.00000   0.00000   0.00000   0.00000   0.00000
                  --------  --------  --------  --------  --------  --------
 0 C  s              48.7       0.0       0.0       0.0      54.9       0.0
 0 C  pz              0.0      19.9      12.0      20.2       0.0       0.0
 0 C  px              0.0       0.1      34.1      18.0       0.0       0.0
 0 C  py              0.0      32.1       6.1      14.0       0.0       0.0
 0 C  dz2             0.0       0.0       0.1       2.9       0.0       5.3
 0 C  dxz             0.0       0.5       0.6       0.0       0.0       5.9
 0 C  dyz             0.0       1.9       0.1       0.0       0.0       1.7
 0 C  dx2y2           0.0       0.3       2.7       0.2       0.0       2.2
 0 C  dxy             0.0       1.0       0.0       0.4       0.0      17.8
 1 H  s               9.0       0.6      16.5      11.3       9.9       0.0
 1 H  pz              0.1       0.0       0.0       0.0       0.0       3.2
 1 H  px              3.8       0.1       2.8       1.9       1.4       0.0
 1 H  py              0.0       0.0       0.0       0.0       0.0      13.6
 2 H  s               9.0      10.9      12.5       4.9       9.9       0.0
 2 H  pz              0.1       0.1       0.1       0.0       0.1       0.0
 2 H  px              0.4       0.2       0.2       0.1       0.1      15.0
 2 H  py              3.3       1.6       1.9       0.7       1.2       1.8
 3 H  s               9.0      21.8       5.5       1.1       9.8       0.0
 3 H  pz              1.5       1.5       0.4       0.1       0.6       9.8
 3 H  px              0.7       0.7       0.2       0.0       0.3       0.9
 3 H  py              1.5       1.5       0.4       0.1       0.6       6.0
 4 H  s               9.0       4.5       3.3      20.6       9.9       0.0
 4 H  pz              3.4       0.7       0.5       3.2       1.3       2.0
 4 H  px              0.2       0.0       0.0       0.2       0.1       8.3
 4 H  py              0.2       0.1       0.0       0.2       0.1       6.6

                     18        19        20        21        22        23   
                   1.09862   1.53279   1.53279   1.53280   1.75641   1.75642
                   0.00000   0.00000   0.00000   0.00000   0.00000   0.00000
                  --------  --------  --------  --------  --------  --------
 0 C  pz              0.0       0.0       0.0       0.0       2.0       5.1
 0 C  px              0.0       0.0       0.0       0.0       2.0       0.4
 0 C  py              0.0       0.0       0.0       0.0       4.8       3.4
 0 C  dz2             0.0       0.0       0.0       0.0       1.3       9.2
 0 C  dxz            16.4       0.0       0.0       0.0       3.3       2.8
 0 C  dyz            12.8       0.0       0.0       0.0       8.2       0.4
 0 C  dx2y2           1.2       0.0       0.0       0.0       0.5       4.7
 0 C  dxy             2.5       0.0       0.0       0.0       5.4       1.6
 1 H  s               0.0       0.0       0.0       0.0       0.5       0.1
 1 H  pz             13.4       2.7      17.5      16.8       2.9       7.6
 1 H  px              0.3       0.0       0.4       0.1       4.8       0.9
 1 H  py              3.2       0.4      16.9      20.2       7.3       5.2
 2 H  s               0.0       0.0       0.0       0.0       0.7       2.2
 2 H  pz             16.2      23.0       6.6       6.5       2.7       8.8
 2 H  px              0.1       0.2      10.2      23.4       2.4       1.1
 2 H  py              0.5       1.3       2.6       1.3      10.4      10.0
 3 H  s               0.0       0.0       0.0       0.0       3.4       0.1
 3 H  pz              0.2      20.7       0.9       0.8       6.3       8.5
 3 H  px             12.6       1.4      28.8       0.0       5.1       0.7
 3 H  py              3.9      13.7       7.5       1.1      12.1       4.5
 4 H  s               0.0       0.0       0.0       0.0       0.1       2.4
 4 H  pz              0.0       3.6       0.4       0.4       3.7      13.8
 4 H  px              7.6       3.3       8.1      24.0       2.9       0.3
 4 H  py              9.2      29.8       0.1       5.4       7.1       6.3

                     24        25        26        27        28        29   
                   1.75643   2.12593   2.12594   2.12596   2.51876   2.51878
                   0.00000   0.00000   0.00000   0.00000   0.00000   0.00000
                  --------  --------  --------  --------  --------  --------
 0 C  pz              1.7       0.3       1.7       8.2       0.0       0.0
 0 C  px              6.5       7.1       3.0       0.1       0.0       0.0
 0 C  py              0.6       2.8       5.5       1.9       0.0       0.0
 0 C  dz2             5.1       0.0      16.1       2.2       0.6      10.2
 0 C  dxz             0.0       1.4       0.0       5.6      23.4      22.0
 0 C  dyz             1.8       0.2       0.5      11.5      29.2       0.4
 0 C  dx2y2          11.6      19.3       0.4       0.0       1.1       5.8
 0 C  dxy             0.2       1.0       4.9       2.5      12.8      28.6
 1 H  s               3.0       0.9       0.4       0.0       0.0       0.0
 1 H  pz              3.1       2.1       1.5      14.2       4.9       3.2
 1 H  px             18.1       9.4       4.4       0.4       0.1       0.0
 1 H  py              1.0       3.7      10.8       3.2       3.2       5.0
 2 H  s               0.7       0.8       0.4       0.0       0.0       0.0
 2 H  pz              2.3       0.3       0.7      16.7       7.5       0.5
 2 H  px             10.9       2.4      14.2       0.8       0.7       6.7
 2 H  py              2.1      12.9       1.6       0.1       0.1       1.0
 3 H  s               0.0       0.0       0.3       1.0       0.0       0.0
 3 H  pz              2.8       0.0      15.8       0.5       0.7       4.3
 3 H  px              9.6       9.4       0.5       7.2       6.6       0.0
 3 H  py              1.0       8.3       0.7       7.3       0.9       4.0
 4 H  s               1.1       0.0       0.6       0.6       0.0       0.0
 4 H  pz              5.2       0.0      12.1       2.4       0.1       0.9
 4 H  px             10.9      13.5       0.9       3.2       2.0       5.7
 4 H  py              0.6       4.3       3.0      10.3       6.1       1.6

                     30        31        32        33   
                   2.58187   2.89814   2.89815   2.89817
                   0.00000   0.00000   0.00000   0.00000
                  --------  --------  --------  --------
 0 C  s              33.4       0.0       0.0       0.0
 0 C  pz              0.0       0.6       6.2       4.2
 0 C  px              0.0       3.0       4.5       3.6
 0 C  py              0.0       7.4       0.4       3.3
 0 C  dz2             0.0      26.2       3.7       5.8
 0 C  dxz             0.0       0.3      11.8       1.8
 0 C  dyz             0.0       3.7       6.4      13.8
 0 C  dx2y2           0.0       0.4      20.8      17.2
 0 C  dxy             0.0      12.1       0.0       4.2
 1 H  s               2.2       3.0       3.5       4.9
 1 H  pz              0.2       0.1       0.0       0.4
 1 H  px             14.3       5.9       7.1       9.4
 1 H  py              0.0       0.1       0.0       0.2
 2 H  s               2.2       4.7       3.1       3.7
 2 H  pz              0.5       0.4       0.7       0.0
 2 H  px              1.5       0.3       1.1       1.1
 2 H  py             12.5       8.7       4.6       6.3
 3 H  s               2.2       4.1       4.6       2.7
 3 H  pz              5.8       2.2       4.4       2.7
 3 H  px              2.8       1.9       2.3       0.4
 3 H  py              5.9       4.2       2.6       2.6
 4 H  s               2.2       3.5       4.1       3.8
 4 H  pz             12.8       5.4       7.7       7.0
 4 H  px              0.8       0.7       0.1       0.8
 4 H  py              0.9       1.0       0.5       0.1


                      *****************************
                      * MAYER POPULATION ANALYSIS *
                      *****************************

  NA   - Mulliken gross atomic population
  ZA   - Total nuclear charge
  QA   - Mulliken gross atomic charge
  VA   - Mayer's total valence
  BVA  - Mayer's bonded valence
  FA   - Mayer's free valence

  ATOM       NA         ZA         QA         VA         BVA        FA
  0 C      6.1157     6.0000    -0.1157     3.9947     3.9947    -0.0000
  1 H      0.9711     1.0000     0.0289     0.9913     0.9913     0.0000
  2 H      0.9711     1.0000     0.0289     0.9913     0.9913    -0.0000
  3 H      0.9710     1.0000     0.0290     0.9912     0.9912    -0.0000
  4 H      0.9711     1.0000     0.0289     0.9913     0.9913    -0.0000

  Mayer bond orders larger than 0.100000
B(  0-C ,  1-H ) :   0.9987 B(  0-C ,  2-H ) :   0.9987 B(  0-C ,  3-H ) :   0.9986 
B(  0-C ,  4-H ) :   0.9987 

-------
TIMINGS
-------

Total SCF time: 0 days 0 hours 0 min 0 sec 

Total time                  ....       0.248 sec
Sum of individual times     ....       0.206 sec  ( 82.7%)

SCF preparation             ....       0.024 sec  (  9.8%)
Fock matrix formation       ....       0.176 sec  ( 70.7%)
  Startup                   ....       0.000 sec  (  0.1% of F)
  Split-RI-J                ....       0.005 sec  (  3.0% of F)
  Chain of spheres X        ....       0.154 sec  ( 87.4% of F)
  XC integration            ....       0.054 sec  ( 30.6% of F)
    Basis function eval.    ....       0.021 sec  ( 39.7% of XC)
    Density eval.           ....       0.008 sec  ( 15.6% of XC)
    XC-Functional eval.     ....       0.011 sec  ( 19.9% of XC)
    XC-Potential eval.      ....       0.009 sec  ( 16.5% of XC)
Diagonalization             ....       0.000 sec  (  0.0%)
Density matrix formation    ....       0.000 sec  (  0.1%)
Total Energy calculation    ....       0.000 sec  (  0.0%)
Population analysis         ....       0.004 sec  (  1.7%)
Orbital Transformation      ....       0.000 sec  (  0.1%)
Orbital Orthonormalization  ....       0.000 sec  (  0.0%)
DIIS solution               ....       0.000 sec  (  0.1%)
  MO trafo                  ....       0.000 sec  (  0.0 % of DIIS)
  Orb grad                  ....       0.000 sec  (  0.0 % of DIIS)
  Energy W gradient         ....       0.000 sec  (  0.0 % of DIIS)
  DIIS error                ....       0.000 sec  (  5.7 % of DIIS)
  DIIS work                 ....       0.000 sec  ( 90.3 % of DIIS)
  Form Q                    ....       0.000 sec  (  0.0 % of DIIS)
  Form QpQm                 ....       0.000 sec  (  0.0 % of DIIS)
  Exp/Cayley                ....       0.000 sec  (  0.0 % of DIIS)
  Orb update                ....       0.000 sec  (  0.0 % of DIIS)
  Wake-sleep                ....       0.000 sec  (  3.4 % of DIIS)
SOSCF solution              ....       0.000 sec  (  0.2%)
  MO trafo                  ....       0.000 sec  ( 47.9 % of SOSCF)
  Orb grad                  ....       0.000 sec  (  1.8 % of SOSCF)
  Rot update                ....       0.000 sec  (  4.6 % of SOSCF)
  Step                      ....       0.000 sec  ( 21.8 % of SOSCF)
Finished LeanSCF after   0.3 sec

Maximum memory used throughout the entire LEANSCF-calculation: 5.7 MB

-------------------------   --------------------
FINAL SINGLE POINT ENERGY       -40.451925843819
-------------------------   --------------------

                                *** OPTIMIZATION RUN DONE ***


------------------------------------------------------------------------------
                              ORCA PROPERTY CALCULATIONS
------------------------------------------------------------------------------

GBWName                                 ... metan.gbw
Number of atoms                         ...      5
Number of basis functions               ...     34
Max core memory                         ...   4096 MB

Electric properties:
Dipole moment                           ... YES
Quadrupole moment                       ...  NO
Static polarizability (Dipole/Dipole)   ...  NO
Static polarizability (Dipole/Quad.)    ...  NO
Static polarizability (Quad./Quad.)     ...  NO
Static polarizability (Velocity)        ...  NO
Static hyperpolarizability              ...  NO

Atomic electric properties:
Dipole moment                           ...  NO
Quadrupole moment                       ...  NO
Static polarizability                   ...  NO

Choice of electric origin               ... Center of mass
Position of electric origin             ...    -0.303375     0.177855    -0.475732

General magnetic properties:
Magnetizability                         ...  NO

EPR properties:
g-Tensor (aka g-matrix)                 ...  NO
Zero-Field splitting spin-orbit         ...  NO
Zero-field splitting spin-spin          ...  NO
Hyperfine couplings                     ...  NO (   0 nuclei)
Quadrupole couplings                    ...  NO (   0 nuclei)
Contact density                         ...  NO (   0 nuclei)

NMR properties:
Chemical shifts                         ...  NO (   0 nuclei)
Spin-rotation constants                 ...  NO (   0 nuclei)
Spin-spin couplings                     ...  NO (   0 nuclei,    0 pairs)

Choice of magnetic origin               ... GIAO
Position of magnetic origin             ...     0.000000     0.000000     0.000000

Properties with geometric perturbations:
SCF Hessian                             ...  NO
IR spectrum                             ...  NO
VCD spectrum                            ...  NO
X-ray spectroscopy properties:
SCF XES/XAS/RIXS spectra                ...  NO

SCF SOC stabilization energy            ...  NO
Diagonal Born-Oppenheimer correction    ...  NO

-------------
DIPOLE MOMENT
-------------

Method             : SCF
Type of density    : Electron Density
Multiplicity       :   1
Irrep              :   0
Energy             :   -40.4519258438189553 Eh
Basis              : AO
                                X                 Y                 Z
Electronic contribution:     -0.000002414      -0.000028166      -0.000032733
Nuclear contribution   :      0.000025432       0.000037100      -0.000007752
                        -----------------------------------------
Total Dipole Moment    :      0.000023018       0.000008934      -0.000040485
                        -----------------------------------------
Magnitude (a.u.)       :      0.000047421
Magnitude (Debye)      :      0.000120533



--------------------
Rotational spectrum 
--------------------
 
Rotational constants in cm-1:             5.186252             5.186236             5.186129 
Rotational constants in MHz :        155479.929289        155479.440459        155476.228808 

Dipole components along the rotational axes: 
x,y,z [a.u.] :    -0.000002    -0.000047     0.000004 
x,y,z [Debye]:    -0.000005    -0.000120     0.000009 

 

Dipole moment calculation done in   0.0 sec 

Maximum memory used throughout the entire PROP-calculation: 3.6 MB

--------------------------------
SUGGESTED CITATIONS FOR THIS RUN
--------------------------------

Below you find a list of papers that are relevant to this ORCA run
We neither can nor want to force you to cite these papers, but we appreciate if you do
You receive ORCA, which is the product of decades of hard work by many enthusiastic individuals, for free
The only thing we kindly ask in return is that you cite our papers,
We deeply appreciate it, if you show your appreciation for ORCA by not just citing the generic ORCA reference.

Please note that relegating all ORCA citations to the supporting information does *not* help us.
SI sections are not indexed - citations you put there will not count into any citation statistics
But we need these citations in order to attract the funding resources that allow us to do what we are doing

Therefore, if you are a happy ORCA user, please consider citing a few of the papers listed below in the main body of your paper

In addition to the list printed below, the program has created the file metan.bibtex that contains the list in bibtex format
You can import this file easily into all common literature databanks and citation aid programs


List of essential papers. We consider these as the minimum necessary citations

  1. Neese, F.
     Software update: the ORCA program system, version 6.0
     WIRES Comput. Molec. Sci. 2025 15(1), e70019
     doi.org/10.1002/wcms.7019

List of papers to cite with high priority. The work reported in these papers was absolutely
necessary for this run to complete.
Our perspective: the developers of density functionals and basis sets usually get cited in chemistry papers
Good! But without the algorithms to do something with them, the functionals or basis sets would not do anything.
Hence, in our opinion, the algorithm design and method developments papers are equally worthy of getting cited

  1. Neese, F.
     An improvement of the resolution of the identity approximation for the formation of the Coulomb matrix
     J. Comp. Chem. 2003 24(14), 1740-1747
     doi.org/10.1002/jcc.10318
  2. Neese, F.; Wennmohs, F.; Hansen, A.; Becker, U.
     Efficient, approximate and parallel Hartree-Fock and hybrid DFT calculations. A 'chain-of-spheres' algorithm for the Hartree-Fock exchange
     Chem. Phys. 2009 356(1-3), 98-109
     doi.org/10.1016/j.chemphys.2008.10.036
  3. Helmich-Paris, B.; de Souza, B.; Neese, F.; Izsák, R.
     An improved chain of spheres for exchange algorithm
     J. Chem. Phys. 2021 155(10), 104109
     doi.org/10.1063/5.0058766
  4. Neese, F.
     The SHARK Integral Generation and Digestion System
     J. Comp. Chem. 2022 44(3), 381
     doi.org/10.1002/jcc.26942

List of suggested additional citations. These are papers that are important in the 'surrounding' of 
of this run, or papers that preceded the highly important papers. If you like your results we are grateful for a citation.

  1. Izsak, R.; Neese, F.
     An overlap fitted chain of spheres exchange method
     J. Chem. Phys. 2011 135 , 144105
     doi.org/10.1063/1.3646921
  2. Izsak, R.; Hansen, A.; Neese, F.
     The resolution of identity and chain of spheres approximations for the LPNO-CCSD singles Fock term
     Molec. Phys. 2012 110 , 2413-2417
     doi.org/10.1080/00268976.2012.687466
  3. Neese, F.
     The ORCA program system
     WIRES Comput. Molec. Sci. 2012 2(1), 73-78
     doi.org/10.1002/wcms.81
  4. Izsak, R.; Neese, F.; Klopper, W.
     Robust fitting techniques in the chain of spheres approximation to the Fock exchange: The role of the complementary space
     J. Chem. Phys. 2013 139 , 
     doi.org/10.1063/1.4819264
  5. Neese, F.
     Software update: the ORCA program system, version 4.0
     WIRES Comput. Molec. Sci. 2018 8(1), 1-6
     doi.org/10.1002/wcms.1327
  6. Neese, F.; Wennmohs, F.; Becker, U.; Riplinger, C.
     The ORCA quantum chemistry program package
     J. Chem. Phys. 2020 152(22), 224108
     doi.org/10.1063/5.0004608
  7. Neese, F.
     Software update: The ORCA program system—Version 5.0
     WIRES Comput. Molec. Sci. 2022 12(1), e1606
     doi.org/10.1002/wcms.1606

List of optional additional citations

  1. Neese, F.
     Approximate second-order SCF convergence for spin unrestricted wavefunctions
     Chem. Phys. Lett. 2000 325(1-3), 93-98
     doi.org/10.1016/s0009-2614(00)00662-x

Timings for individual modules:

Sum of individual times          ...        2.265 sec (=   0.038 min)
Startup calculation              ...        0.224 sec (=   0.004 min)   9.9 %
SCF iterations                   ...        1.219 sec (=   0.020 min)  53.8 %
Property calculations            ...        0.024 sec (=   0.000 min)   1.0 %
SCF Gradient evaluation          ...        0.788 sec (=   0.013 min)  34.8 %
Geometry relaxation              ...        0.010 sec (=   0.000 min)   0.4 %
                             ****ORCA TERMINATED NORMALLY****
TOTAL RUN TIME: 0 days 0 hours 0 minutes 2 seconds 337 msec
