
                                 *****************
                                 * O   R   C   A *
                                 *****************

                                            #,                                       
                                            ###                                      
                                            ####                                     
                                            #####                                    
                                            ######                                   
                                           ########,                                 
                                     ,,################,,,,,                         
                               ,,#################################,,                 
                          ,,##########################################,,             
                       ,#########################################, ''#####,          
                    ,#############################################,,   '####,        
                  ,##################################################,,,,####,       
                ,###########''''           ''''###############################       
              ,#####''   ,,,,##########,,,,          '''####'''          '####       
            ,##' ,,,,###########################,,,                        '##       
           ' ,,###''''                  '''############,,,                           
         ,,##''                                '''############,,,,        ,,,,,,###''
      ,#''                                            '''#######################'''  
     '                                                          ''''####''''         
             ,#######,   #######,   ,#######,      ##                                
            ,#'     '#,  ##    ##  ,#'     '#,    #''#        ,####,    ,#,          
            ##       ##  ##   ,#'  ##            #'  '#       #'       ,# #          
            ##       ##  #######   ##           ,######,      #####,      #          
            '#,     ,#'  ##    ##  '#,     ,#' ,#      #,     #,   #      #          
             '#######'   ##     ##  '#######'  #'      '#     '####' #    #          



                #########################################################
                #                        -***-                          #
                #          Department of theory and spectroscopy        #
                #                                                       #
                #                      Frank Neese                      #
                #                                                       #
                #     Directorship, Architecture, Infrastructure        #
                #                    SHARK, DRIVERS                     #
                #        Core code/Algorithms in most modules           #
                #                                                       #
                #        Max Planck Institute fuer Kohlenforschung      #
                #                Kaiser Wilhelm Platz 1                 #
                #                 D-45470 Muelheim/Ruhr                 #
                #                      Germany                          #
                #                                                       #
                #                  All rights reserved                  #
                #                        -***-                          #
                #########################################################


                         Program Version 6.1.1  -  RELEASE   -
                                (GIT: $487d211c$)
                          ($2025-11-21 10:33:24 +0100$)


 With contributions from (in alphabetic order):
[Max-Planck-Institut fuer Kohlenforschung]                               
  Daniel Aravena         : Magnetic Suceptibility                        
  Michael Atanasov       : Ab Initio Ligand Field Theory (pilot matlab implementation)
  Alexander A. Auer      : GIAO ZORA, VPT2 properties, NMR spectrum      
  Ute Becker             : All parallelization in ORCA, NUMFREQ, NUMCALC 
  Giovanni Bistoni       : ED, misc. LED, open-shell LED, HFLD           
  Dmytro Bykov           : pre 5.0 version of the SCF Hessian            
  Marcos Casanova-Páez   : Triplet and SCS-CIS(D). UHF-(DLPNO)-IP/EA/STEOM-CCSD. UHF-CVS-IP/STEOM-CCSD   
  Vijay G. Chilkuri      : MRCI spin determinant printing, contributions to CSF-ICE 
  Pauline Colinet        : FMM embedding                                 
  Dipayan Datta          : RHF DLPNO-CCSD density                        
  Achintya Kumar Dutta   : EOM-CC, STEOM-CC                              
  Nicolas Foglia         : Exact transition moments, OPA infrastructure, MCD improvements    
  Dmitry Ganyushin       : Spin-Orbit,Spin-Spin,Magnetic field MRCI      
  Miquel Garcia-Rates    : C-PCM and meta-GGA Hessian, CCSD/C-PCM, Gaussian charge scheme 
  Tiago L. C. Gouveia    : GS-ROHF, GS-ROCIS                             
  Yang Guo               : DLPNO-NEVPT2, F12-NEVPT2, CIM, IAO-localization        
  Andreas Hansen         : Spin unrestricted coupled pair/coupled cluster methods 
  Ingolf Harden          : AUTO-CI MPn and infrastructure                
  Benjamin Helmich-Paris : MC-RPA, TRAH-(SCF,CASSCF), AVAS, COSX integrals, SCF dyn. polar., MC-PDFT, srDFT 
  Lee Huntington         : MR-EOM, pCC                                   
  Robert Izsak           : Overlap fitted RIJCOSX, COSX-SCS-MP3, EOM     
  Riya Kayal             : Wick's Theorem for AUTO-CI, AUTO-CI UHF-CCSDT 
  Emily Kempfer          : AUTO-CI RHF CISDT and CCSDT, approximate NEVPT4
  Christian Kollmar      : KDIIS, OOCD, Brueckner-CCSD(T), CCSD density, CASPT2, CASPT2-K, improved NEVPT2 
  Axel Koslowski         : Symmetry handling                             
  Simone Kossmann        : meta-GGA functionals, TD-DFT gradient, OOMP2, (MP2 Hessian; deprecated post 5.0) 
  Lucas Lang             : DCDCAS, Hyperfine gauge corrections, ICE-SOC+SSC
  Marvin Lechner         : AUTO-CI (C++ implementation), FIC-MRCC        
  Spencer Leger          : CASSCF response                               
  Dagmar Lenk            : GEPOL surface, SMD, ORCA-2-JSON               
  Dimitrios Liakos       : Extrapolation schemes; Compound Job, Property file
  Dimitrios Manganas     : Further ROCIS development; embedding schemes. LFT, Crystal Embedding 
  Dimitrios Pantazis     : SARC Basis sets                               
  Anastasios Papadopoulos: AUTO-CI, single reference methods and gradients 
  Taras Petrenko         : pre 6.0 DFT Hessian and TD-DFT gradient,  ECA, NRVS 
  Petra Pikulova         : Analytic Raman intensities                    
  Peter Pinski           : DLPNO-MP2, DLPNO-MP2 Gradient                 
  Shashank Vittal Rao    : ES-AILFT, MagRelax                            
  Christoph Reimann      : Effective Core Potentials                     
  Marius Retegan         : Local ZFS, SOC                                
  Christoph Riplinger    : Optimizer, TS searches, QM/MM, DLPNO-CCSD(T), (RO)-DLPNO pert. Triples 
  Michael Roemelt        : Original ROCIS implementation, recursive CI coupling coefficients
  Masaaki Saitow         : Open-shell DLPNO-CCSD energy and density      
  Barbara Sandhoefer     : DKH picture change effects                    
  Yorick L. A. Schmerwitz: GMF and freeze-and-release deltaSCF, NEB S-IDPP initial path                    
  Kantharuban Sivalingam : CASSCF convergence/infrastructure, NEVPT2, NEVPT3, NEVPT4(SD), FIC-MRCI and CEPA variants
  Bernardo de Souza      : ESD, SOC TD-DFT                               
  Georgi L. Stoychev     : AutoAux, RI-MP2 NMR, DLPNO-MP2 response, X2C  
  Van Anh Tran           : RI-MP2 g-tensors                              
  Willem Van den Heuvel  : Paramagnetic NMR                              
  Zikuan Wang            : NOTCH, Electric field optimization            
  Frank Wennmohs         : Technical directorship and infrastructure     
  Hang Xu                : AUTO-CI-Response properties                   
                                                                         
[FACCTs GmbH]                                                            
  Markus Bursch, Nicolas Foglia, Miquel Garcia-Rates, Ingolf Harden, Hagen Neugebauer, Anastasios Papadopoulos, 
  Christoph Riplinger, Bernardo de Souza, Georgi L. Stoychev                                                    
                                                                 
  APM, various basis sets, CI-OPT, improved COSX, DLPNO-Multilevel,           
  DOCKER, DRACO, updates on ESD, Fragmentator, GOAT, IRC, LR-CPCM, L-BFGS, MBIS, meta-GGA TD-DFT gradient, ML-optimized integration grids, 
  MM, NACMEs, nearIR, NEB, NEB-TS, NL-DFT gradient (VV10), 2- and 3-layer-ONIOM, interface openCOSMO-RS, QMMM,   
  Crystal-QMMM, RESP, rigid body optimization, SF, symmetry and pop. for TD-DFT, various functionals, SOLVATOR                                   
                                                                         
[Other institutions]                                                     
  V. Asgeirsson          : NEB                                           
  Christoph Bannwarth    : sTDA-DFT, sTD-DFT, PBEh-3c, B97-3c, D3        
  Giovanni Bistoni       : ETS/NOCV, ADLD/ADEX, COVALED                  
  Martin Brehm           : Molecular dynamics                            
  Ronald Cardenas        : ETS/NOCV                                      
  Martina Colucci        : COVALED                                       
  Sebastian Ehlert       : rSCAN, r2SCAN, r2SCAN-3c, D4, dhf basis sets  
  Marvin Friede          : D4 for Fr, Ra, Ac-Lr                          
  Lars Goerigk           : TD-DFT with DH, B97 family of functionals     
  Stefan Grimme          : VdW corrections, initial TS optimization, DFT functionals, gCP, sTDA/sTD-DF 
  Waldemar Hujo          : DFT-NL                                        
  H. Jonsson             : NEB                                           
  Holger Kruse           : gCP                                           
  Marcel Mueller         : wB97X-3c, vDZP basis set                      
  Hagen Neugebauer       : wr2SCAN, Native XTB                           
  Gianluca Regni         : ADLD/ADEX                                     
  Tobias Risthaus        : pre 6.0 range-separated hybrid DFT and stability analysis
  Lukas Wittmann         : regularized MP2, r2SCAN double-hybrids, wr2SCAN        
                                                                         
We gratefully acknowledge several colleagues who have allowed us to      
interface, adapt or use parts of their codes:                            
  Ed Valeev, F. Pavosevic, A. Kumar             : LibInt (2-el integral package), F12 methods 
  Garnet Chan, S. Sharma, J. Yang, R. Olivares  : DMRG                   
  Ulf Ekstrom                                   : XCFun DFT Library      
  Mihaly Kallay                                 : mrcc  (arbitrary order and MRCC methods)
  Frank Weinhold                                : gennbo (NPA and NBO analysis)           
  Simon Mueller                                 : openCOSMO-RS                            
  Christopher J. Cramer and Donald G. Truhlar   : smd solvation model                     
  S Lehtola, MJT Oliveira, MAL Marques          : LibXC Library                           
  Liviu Ungur et al                             : ANISO software                          


 Your calculation uses the libint2 library for the computation of 2-el integrals
 For citations please refer to: http://libint.valeyev.net

 Your ORCA version has been built with support for libXC version: 7.0.0
 For citations please refer to: https://libxc.gitlab.io

 This ORCA versions uses:
   CBLAS   interface :  Fast vector & matrix operations
   LAPACKE interface :  Fast linear algebra routines
   SCALAPACK package :  Parallel linear algebra routines
   Shared memory     :  Shared parallel matrices
   BLAS/LAPACK       :  OpenBLAS 0.3.29  USE64BITINT DYNAMIC_ARCH NO_AFFINITY Haswell SINGLE_THREADED
        Core in use  :  Haswell
   Copyright (c) 2011-2014, The OpenBLAS Project


  ***********************************
  * Starting time: Sun Jan 11 02:06:18 2026
  * Host name:     Maks
  * Process ID:    20678
  * Working dir.:  /home/maksy/Chemia_obliczeniowa/Cwiczenia4
  ***********************************

Your calculation utilizes the semiempirical GFN2-xTB method
Please cite in your paper:
Bannwarth, C.; Ehlert S.; Grimme, S. J. Chem. Theory Comput. 2019, 15, 1652.
   

================================================================================

================================================================================
                                        WARNINGS
                       Please study these warnings very carefully!
================================================================================


================================================================================
 STARTING AUTOMATIC FRAGMENTATION: 
================================================================================

WARNING: GOAT using GFNUPHILL.
  ===> : turning off MaxEn as an uphill stop criteria.

WARNING: Geometry Optimization
  ===> : Switching off AutoStart
         For restart on a previous wavefunction, please use MOREAD

WARNING: Found dipole moment calculation with XTB calculation
  ===> : Switching off dipole moment calculation


================================================================================
                                       INPUT FILE
================================================================================
NAME = difenylopropan.inp
|  1> ! GOAT XTB2
|  2> 
|  3> %GOAT GFNUPHILL GFNFF end
|  4> 
|  5> * xyz 0 1
|  6>  C         0.000000        0.000000        0.000000
|  7>  C        -1.500000        0.000000        0.000000
|  8>  C        -2.249999        1.299039        0.000000
|  9>  C        -1.499995        2.598079       -0.000226
| 10>  C         0.000005        2.598076       -0.000677
| 11>  C         0.750001        1.299036       -0.001129
| 12>  C         2.250000        1.299028       -0.002710
| 13>  C         2.998628        1.292855       -1.302525
| 14>  C         2.247307        1.299050       -2.600785
| 15>  C         2.993238        1.214458       -3.899412
| 16>  C         4.476352        1.437032       -3.928309
| 17>  C         5.023535        2.822042       -4.108127
| 18>  C         4.087604        3.984508       -4.258824
| 19>  C         2.604490        3.761990       -4.229479
| 20>  C         2.057310        2.377036       -4.049211
| 21>  H         0.500000       -0.866025        0.000753
| 22>  H        -2.000000       -0.866025       -0.000000
| 23>  H        -3.249999        1.299037        0.000151
| 24>  H        -1.999992        3.464107       -0.000075
| 25>  H         0.500007        3.464100       -0.000676
| 26>  H         2.540882        2.115522        0.496014
| 27>  H         2.540882        0.487309        0.503748
| 28>  H         3.586025        2.102154       -1.303127
| 29>  H         3.572598        0.473978       -1.303127
| 30>  H         1.618423        0.521946       -2.576020
| 31>  H         1.716915        2.146449       -2.625266
| 32>  H         5.100305        0.662074       -3.827695
| 33>  H         6.012278        2.970406       -4.127541
| 34>  H         4.452391        4.907830       -4.378852
| 35>  H         1.980535        4.536946       -4.330095
| 36>  H         1.068568        2.228785       -4.028898
| 37> *
| 38> 
| 39>                          ****END OF INPUT****
================================================================================

                       *****************************
                       * Geometry Optimization Run *
                       *****************************


                       *********************************
                       *              GOAT             *
                       * Global Optimization Algorithm *
                       *********************************

Geometry optimization settings:
Update method            Update   .... BFGS
Choice of coordinates    CoordSys .... (2022) Redundant Internals
Initial Hessian          InHess   .... Almloef's Model
Max. no of cycles        MaxIter  .... 93

Convergence Tolerances:
Energy Change            TolE     ....  5.0000e-06 Eh
Max. Gradient            TolMAXG  ....  3.0000e-04 Eh/bohr
RMS Gradient             TolRMSG  ....  1.0000e-04 Eh/bohr
Max. Displacement        TolMAXD  ....  4.0000e-03 bohr
RMS Displacement         TolRMSD  ....  2.0000e-03 bohr
Strict Convergence                .... True

------------------------------------------------------------------------------
                        ORCA OPTIMIZATION COORDINATE SETUP
------------------------------------------------------------------------------

The optimization will be done in redundant internal coordinates (2022)
Making redundant internal coordinates   ...  (2022 redundants) done
Evaluating the initial hessian          ...  (Almloef) done
Evaluating the coordinates              ...  done
Calculating the B-matrix                .... done
Calculating the G-matrix                .... done
The number of degrees of freedom        ....  175

    -----------------------------------------------------------------
                    Redundant Internal Coordinates


    -----------------------------------------------------------------
         Definition                    Initial Value    Approx d2E/dq
    -----------------------------------------------------------------
      1. B(C   1,C   0)                  1.5000         0.417100   
      2. B(C   2,C   1)                  1.5000         0.417100   
      3. B(C   3,C   2)                  1.5000         0.417095   
      4. B(C   4,C   3)                  1.5000         0.417100   
      5. B(C   5,C   4)                  1.5000         0.417101   
      6. B(C   5,C   0)                  1.5000         0.417102   
      7. B(C   6,C   5)                  1.5000         0.417101   
      8. B(C   7,C   6)                  1.5000         0.417100   
      9. B(C   8,C   7)                  1.5000         0.417100   
     10. B(C   9,C   8)                  1.5000         0.417100   
     11. B(C  10,C   9)                  1.5000         0.417100   
     12. B(C  11,C  10)                  1.5000         0.417102   
     13. B(C  12,C  11)                  1.5000         0.417099   
     14. B(C  13,C  12)                  1.5000         0.417099   
     15. B(C  14,C   8)                  1.8155         0.130875   
     16. B(C  14,C  13)                  1.5000         0.417100   
     17. B(C  14,C   9)                  1.5000         0.417106   
     18. B(H  15,C   0)                  1.0000         0.501202   
     19. B(H  16,C   1)                  1.0000         0.501202   
     20. B(H  17,C   2)                  1.0000         0.501201   
     21. B(H  18,C   3)                  1.0000         0.501200   
     22. B(H  19,C   4)                  1.0000         0.501202   
     23. B(H  20,C   6)                  1.0000         0.501201   
     24. B(H  21,C   6)                  1.0000         0.501202   
     25. B(H  22,C   7)                  1.0000         0.501201   
     26. B(H  23,C   7)                  1.0000         0.501200   
     27. B(H  24,C   8)                  1.0000         0.501202   
     28. B(H  25,C   8)                  1.0000         0.501201   
     29. B(H  26,C  10)                  1.0000         0.501201   
     30. B(H  27,C  11)                  1.0000         0.501200   
     31. B(H  28,C  12)                  1.0000         0.501202   
     32. B(H  29,C  13)                  1.0000         0.501201   
     33. B(H  30,C  14)                  1.0000         0.501200   
     34. A(C   1,C   0,H  15)          120.0000         0.349010   
     35. A(C   1,C   0,C   5)          120.0001         0.377386   
     36. A(C   5,C   0,H  15)          119.9999         0.349010   
     37. A(C   2,C   1,H  16)          120.0000         0.349010   
     38. A(C   0,C   1,H  16)          120.0000         0.349010   
     39. A(C   0,C   1,C   2)          119.9999         0.377386   
     40. A(C   1,C   2,H  17)          119.9998         0.349010   
     41. A(C   1,C   2,C   3)          120.0000         0.377385   
     42. A(C   3,C   2,H  17)          120.0002         0.349009   
     43. A(C   4,C   3,H  18)          119.9999         0.349009   
     44. A(C   2,C   3,C   4)          120.0000         0.377385   
     45. A(C   2,C   3,H  18)          120.0001         0.349009   
     46. A(C   3,C   4,C   5)          119.9999         0.377386   
     47. A(C   3,C   4,H  19)          120.0000         0.349010   
     48. A(C   5,C   4,H  19)          120.0000         0.349010   
     49. A(C   0,C   5,C   6)          119.9998         0.377386   
     50. A(C   0,C   5,C   4)          120.0001         0.377386   
     51. A(C   4,C   5,C   6)          120.0001         0.377386   
     52. A(C   7,C   6,H  20)          106.8790         0.349010   
     53. A(C   7,C   6,H  21)          106.8791         0.349010   
     54. A(H  20,C   6,H  21)          109.0000         0.323426   
     55. A(C   5,C   6,C   7)          119.9999         0.377386   
     56. A(C   5,C   6,H  20)          106.8790         0.349010   
     57. A(C   5,C   6,H  21)          106.8791         0.349010   
     58. A(C   8,C   7,H  23)          106.8790         0.349009   
     59. A(C   8,C   7,H  22)          106.8790         0.349010   
     60. A(C   6,C   7,C   8)          120.0000         0.377386   
     61. A(C   6,C   7,H  22)          106.8790         0.349010   
     62. A(H  22,C   7,H  23)          109.0000         0.323426   
     63. A(C   6,C   7,H  23)          106.8790         0.349009   
     64. A(C  14,C   8,H  25)           54.6765         0.289012   
     65. A(C   7,C   8,H  25)          106.8790         0.349010   
     66. A(H  24,C   8,H  25)          109.0000         0.323426   
     67. A(C   9,C   8,H  25)          106.8790         0.349010   
     68. A(C  14,C   8,H  24)          114.5420         0.289012   
     69. A(C   9,C   8,H  24)          106.8790         0.349010   
     70. A(C   7,C   8,H  24)          106.8790         0.349010   
     71. A(C   7,C   8,C   9)          119.9999         0.377386   
     72. A(C   9,C   8,C  14)           52.7587         0.310840   
     73. A(C   7,C   8,C  14)          138.1914         0.310840   
     74. A(C   8,C   9,C  10)          120.0000         0.377385   
     75. A(C  10,C   9,C  14)          120.0001         0.377386   
     76. A(C   8,C   9,C  14)           74.4824         0.377387   
     77. A(C   9,C  10,C  11)          120.0000         0.377386   
     78. A(C  11,C  10,H  26)          120.0000         0.349010   
     79. A(C   9,C  10,H  26)          120.0000         0.349010   
     80. A(C  10,C  11,C  12)          120.0000         0.377386   
     81. A(C  12,C  11,H  27)          120.0000         0.349009   
     82. A(C  10,C  11,H  27)          120.0000         0.349010   
     83. A(C  11,C  12,C  13)          120.0000         0.377385   
     84. A(C  13,C  12,H  28)          119.9999         0.349009   
     85. A(C  11,C  12,H  28)          120.0001         0.349009   
     86. A(C  14,C  13,H  29)          120.0000         0.349010   
     87. A(C  12,C  13,H  29)          120.0001         0.349009   
     88. A(C  12,C  13,C  14)          119.9999         0.377385   
     89. A(C  13,C  14,H  30)          120.0001         0.349009   
     90. A(C   9,C  14,H  30)          119.9998         0.349010   
     91. A(C   8,C  14,H  30)           89.9566         0.289011   
     92. A(C   9,C  14,C  13)          120.0001         0.377387   
     93. A(C   8,C  14,C  13)          127.2956         0.310840   
     94. A(C   8,C  14,C   9)           52.7589         0.310840   
     95. D(H  16,C   1,C   0,C   5)    179.9502         0.011913   
     96. D(H  16,C   1,C   0,H  15)     -0.0498         0.011913   
     97. D(C   2,C   1,C   0,C   5)     -0.0498         0.011913   
     98. D(C   2,C   1,C   0,H  15)    179.9502         0.011913   
     99. D(H  17,C   2,C   1,C   0)   -179.9900         0.011913   
    100. D(C   3,C   2,C   1,H  16)   -179.9900         0.011913   
    101. D(C   3,C   2,C   1,C   0)      0.0100         0.011913   
    102. D(H  17,C   2,C   1,H  16)      0.0100         0.011913   
    103. D(H  18,C   3,C   2,H  17)      0.0100         0.011913   
    104. D(C   4,C   3,C   2,C   1)      0.0099         0.011913   
    105. D(C   4,C   3,C   2,H  17)   -179.9901         0.011913   
    106. D(H  18,C   3,C   2,C   1)   -179.9900         0.011913   
    107. D(H  19,C   4,C   3,C   2)   -179.9900         0.011913   
    108. D(C   5,C   4,C   3,H  18)   -179.9901         0.011913   
    109. D(C   5,C   4,C   3,C   2)      0.0100         0.011913   
    110. D(H  19,C   4,C   3,H  18)      0.0100         0.011913   
    111. D(C   6,C   5,C   4,H  19)     -0.0499         0.011913   
    112. D(C   0,C   5,C   4,H  19)    179.9501         0.011913   
    113. D(C   6,C   5,C   0,H  15)      0.0698         0.011914   
    114. D(C   4,C   5,C   0,H  15)   -179.9302         0.011914   
    115. D(C   0,C   5,C   4,C   3)     -0.0498         0.011913   
    116. D(C   6,C   5,C   4,C   3)    179.9502         0.011913   
    117. D(C   4,C   5,C   0,C   1)      0.0697         0.011914   
    118. D(C   6,C   5,C   0,C   1)   -179.9303         0.011914   
    119. D(H  21,C   6,C   5,C   0)    -31.9621         0.012870   
    120. D(H  20,C   6,C   5,C   4)     31.4476         0.012870   
    121. D(H  20,C   6,C   5,C   0)   -148.5524         0.012870   
    122. D(C   7,C   6,C   5,C   4)    -90.2572         0.012870   
    123. D(C   7,C   6,C   5,C   0)     89.7428         0.012870   
    124. D(C   8,C   7,C   6,H  20)   -121.1596         0.013769   
    125. D(C   8,C   7,C   6,C   5)      0.5452         0.013769   
    126. D(H  22,C   7,C   6,H  21)   -116.0450         0.013769   
    127. D(H  22,C   7,C   6,H  20)      0.5453         0.013769   
    128. D(H  22,C   7,C   6,C   5)    122.2501         0.013769   
    129. D(C   8,C   7,C   6,H  21)    122.2501         0.013769   
    130. D(H  24,C   8,C   7,C   6)    -54.8334         0.014621   
    131. D(C  14,C   8,C   7,H  23)   -121.0869         0.014621   
    132. D(C  14,C   8,C   7,H  22)     -4.4967         0.014621   
    133. D(C   9,C   8,C   7,H  23)    -54.8334         0.014621   
    134. D(C   9,C   8,C   7,C   6)   -176.5383         0.014621   
    135. D(C   9,C   8,C   7,H  22)     61.7568         0.014621   
    136. D(C  14,C   8,C   7,C   6)    117.2083         0.014621   
    137. D(C  14,C   9,C   8,H  24)    108.3355         0.013769   
    138. D(C  14,C   9,C   8,C   7)   -129.9596         0.013769   
    139. D(C  10,C   9,C   8,H  25)    107.7782         0.013769   
    140. D(C  10,C   9,C   8,H  24)   -135.6315         0.013769   
    141. D(C  10,C   9,C   8,C  14)    116.0330         0.013769   
    142. D(C  10,C   9,C   8,C   7)    -13.9266         0.013769   
    143. D(H  26,C  10,C   9,C  14)    179.9501         0.011913   
    144. D(H  26,C  10,C   9,C   8)     91.2897         0.011913   
    145. D(C  11,C  10,C   9,C  14)     -0.0499         0.011913   
    146. D(C  11,C  10,C   9,C   8)    -88.7103         0.011913   
    147. D(H  27,C  11,C  10,H  26)      0.0100         0.011914   
    148. D(H  27,C  11,C  10,C   9)   -179.9900         0.011914   
    149. D(C  12,C  11,C  10,H  26)   -179.9900         0.011914   
    150. D(C  12,C  11,C  10,C   9)      0.0100         0.011914   
    151. D(H  28,C  12,C  11,H  27)      0.0100         0.011913   
    152. D(H  28,C  12,C  11,C  10)   -179.9900         0.011913   
    153. D(C  13,C  12,C  11,H  27)   -179.9900         0.011913   
    154. D(C  13,C  12,C  11,C  10)      0.0099         0.011913   
    155. D(H  29,C  13,C  12,C  11)   -179.9899         0.011913   
    156. D(C  14,C  13,C  12,H  28)   -179.9900         0.011913   
    157. D(C  14,C  13,C  12,C  11)      0.0101         0.011913   
    158. D(H  29,C  13,C  12,H  28)      0.0101         0.011913   
    159. D(H  30,C  14,C  13,C  12)    179.9500         0.012870   
    160. D(C   9,C  14,C  13,H  29)    179.9500         0.012870   
    161. D(C   8,C  14,C  13,H  29)   -116.0681         0.012870   
    162. D(C   8,C  14,C  13,C  12)     63.9320         0.012870   
    163. D(H  30,C  14,C   9,C  10)   -179.9301         0.012870   
    164. D(H  30,C  14,C   9,C   8)    -63.8972         0.012870   
    165. D(C  13,C  14,C   9,C  10)      0.0699         0.012870   
    166. D(C  13,C  14,C   9,C   8)    116.1028         0.012870   
    167. D(C   8,C  14,C   9,C  10)   -116.0329         0.012870   
    168. D(C  13,C  14,C   8,H  25)     68.1540         0.010000   
    169. D(C  13,C  14,C   8,H  24)    164.7622         0.010000   
    170. D(C  13,C  14,C   8,C   9)   -102.1517         0.010000   
    171. D(C  13,C  14,C   8,C   7)     -6.8630         0.010000   
    172. D(C   9,C  14,C  13,C  12)     -0.0500         0.012870   
    173. D(C   9,C  14,C   8,H  25)    170.3057         0.010000   
    174. D(C   9,C  14,C   8,H  24)    -93.0861         0.010000   
    175. D(C   9,C  14,C   8,C   7)     95.2886         0.010000   
    -----------------------------------------------------------------

Number of atoms                         .... 31
Number of degrees of freedom            .... 175


         *************************************************************
         *                GEOMETRY OPTIMIZATION CYCLE   1            *
         *************************************************************
---------------------------------
CARTESIAN COORDINATES (ANGSTROEM)
---------------------------------
  C     0.000000    0.000000    0.000000
  C    -1.500000    0.000000    0.000000
  C    -2.249999    1.299039    0.000000
  C    -1.499995    2.598079   -0.000226
  C     0.000005    2.598076   -0.000677
  C     0.750001    1.299036   -0.001129
  C     2.250000    1.299028   -0.002710
  C     2.998628    1.292855   -1.302525
  C     2.247307    1.299050   -2.600785
  C     2.993238    1.214458   -3.899412
  C     4.476352    1.437032   -3.928309
  C     5.023535    2.822042   -4.108127
  C     4.087604    3.984508   -4.258824
  C     2.604490    3.761990   -4.229479
  C     2.057310    2.377036   -4.049211
  H     0.500000   -0.866025    0.000753
  H    -2.000000   -0.866025   -0.000000
  H    -3.249999    1.299037    0.000151
  H    -1.999992    3.464107   -0.000075
  H     0.500007    3.464100   -0.000676
  H     2.540882    2.115522    0.496014
  H     2.540882    0.487309    0.503748
  H     3.586025    2.102154   -1.303127
  H     3.572598    0.473978   -1.303127
  H     1.618423    0.521946   -2.576020
  H     1.716915    2.146449   -2.625266
  H     5.100305    0.662074   -3.827695
  H     6.012278    2.970406   -4.127541
  H     4.452391    4.907830   -4.378852
  H     1.980535    4.536946   -4.330095
  H     1.068568    2.228785   -4.028898

----------------------------
CARTESIAN COORDINATES (A.U.)
----------------------------
  NO LB    ZA    FRAG    MASS        X           Y           Z
   0 C   6.0000    1    12.011    0.000000    0.000000    0.000000
   1 C   6.0000    1    12.011   -2.834589    0.000000    0.000000
   2 C   6.0000    1    12.011   -4.251882    2.454828    0.000000
   3 C   6.0000    1    12.011   -2.834580    4.909658   -0.000427
   4 C   6.0000    1    12.011    0.000009    4.909652   -0.001279
   5 C   6.0000    1    12.011    1.417296    2.454822   -0.002134
   6 C   6.0000    1    12.011    4.251884    2.454807   -0.005121
   7 C   6.0000    1    12.011    5.666586    2.443142   -2.461416
   8 C   6.0000    1    12.011    4.246795    2.454849   -4.914771
   9 C   6.0000    1    12.011    5.656400    2.294993   -7.368821
  10 C   6.0000    1    12.011    8.459079    2.715597   -7.423428
  11 C   6.0000    1    12.011    9.493105    5.332887   -7.763235
  12 C   6.0000    1    12.011    7.724452    7.529629   -8.048011
  13 C   6.0000    1    12.011    4.921773    7.109131   -7.992557
  14 C   6.0000    1    12.011    3.887752    4.491947   -7.651900
  15 H   1.0000    1     1.008    0.944863   -1.636550    0.001423
  16 H   1.0000    1     1.008   -3.779452   -1.636550   -0.000000
  17 H   1.0000    1     1.008   -6.141608    2.454824    0.000285
  18 H   1.0000    1     1.008   -3.779437    6.546214   -0.000142
  19 H   1.0000    1     1.008    0.944876    6.546200   -0.001277
  20 H   1.0000    1     1.008    4.801571    3.997757    0.937331
  21 H   1.0000    1     1.008    4.801571    0.920881    0.951946
  22 H   1.0000    1     1.008    6.776605    3.972495   -2.462553
  23 H   1.0000    1     1.008    6.751232    0.895689   -2.462553
  24 H   1.0000    1     1.008    3.058376    0.986335   -4.867972
  25 H   1.0000    1     1.008    3.244499    4.056201   -4.961034
  26 H   1.0000    1     1.008    9.638180    1.251139   -7.233295
  27 H   1.0000    1     1.008   11.361559    5.613254   -7.799922
  28 H   1.0000    1     1.008    8.413800    9.274455   -8.274831
  29 H   1.0000    1     1.008    3.742669    8.573585   -8.182694
  30 H   1.0000    1     1.008    2.019301    4.211793   -7.613514

      -----------------------------------------------------------      
     |                   =====================                   |     
     |                           x T B                           |     
     |                   =====================                   |     
     |                         S. Grimme                         |     
     |          Mulliken Center for Theoretical Chemistry        |     
     |                    University of Bonn                     |     
      -----------------------------------------------------------      

   * xtb version 6.7.1 (edcfbbe) compiled by 'albert@albert-system' on 2024-07-22

   xtb is free software: you can redistribute it and/or modify it under
   the terms of the GNU Lesser General Public License as published by
   the Free Software Foundation, either version 3 of the License, or
   (at your option) any later version.
   
   xtb is distributed in the hope that it will be useful,
   but WITHOUT ANY WARRANTY; without even the implied warranty of
   MERCHANTABILITY or FITNESS FOR A PARTICULAR PURPOSE.  See the
   GNU Lesser General Public License for more details.
   
   Cite this work as:
   * C. Bannwarth, E. Caldeweyher, S. Ehlert, A. Hansen, P. Pracht,
     J. Seibert, S. Spicher, S. Grimme, WIREs Comput. Mol. Sci., 2020, 11,
     e01493. DOI: 10.1002/wcms.1493
   
   for GFN2-xTB:
   * C. Bannwarth, S. Ehlert and S. Grimme., J. Chem. Theory Comput., 2019,
     15, 1652-1671. DOI: 10.1021/acs.jctc.8b01176
   for GFN1-xTB:
   * S. Grimme, C. Bannwarth, P. Shushkov, J. Chem. Theory Comput., 2017,
     13, 1989-2009. DOI: 10.1021/acs.jctc.7b00118
   for GFN0-xTB:
   * P. Pracht, E. Caldeweyher, S. Ehlert, S. Grimme, ChemRxiv, 2019, preprint.
     DOI: 10.26434/chemrxiv.8326202.v1
   for GFN-FF:
   * S. Spicher and S. Grimme, Angew. Chem. Int. Ed., 2020, 59, 15665-15673.
     DOI: 10.1002/anie.202004239
   
   for ALPB and GBSA implicit solvation:
   * S. Ehlert, M. Stahn, S. Spicher, S. Grimme, J. Chem. Theory Comput.,
     2021, 17, 4250-4261. DOI: 10.1021/acs.jctc.1c00471
   
   for ddCOSMO and CPCM-X implicit solvation:
   * M. Stahn, S. Ehlert, S. Grimme, J. Phys. Chem. A,
     2023, XX, XXXX-XXXX. DOI: 10.1021/acs.jpca.3c04382
   
   for DFT-D4:
   * E. Caldeweyher, C. Bannwarth and S. Grimme, J. Chem. Phys., 2017,
     147, 034112. DOI: 10.1063/1.4993215
   * E. Caldeweyher, S. Ehlert, A. Hansen, H. Neugebauer, S. Spicher,
     C. Bannwarth and S. Grimme, J. Chem. Phys., 2019, 150, 154122.
     DOI: 10.1063/1.5090222
   * E. Caldeweyher, J.-M. Mewes, S. Ehlert and S. Grimme, Phys. Chem. Chem. Phys.
     2020, 22, 8499-8512. DOI: 10.1039/D0CP00502A
   
   for sTDA-xTB:
   * S. Grimme and C. Bannwarth, J. Chem. Phys., 2016, 145, 054103.
     DOI: 10.1063/1.4959605
   
   in the mass-spec context:
   * V. Asgeirsson, C. Bauer and S. Grimme, Chem. Sci., 2017, 8, 4879.
     DOI: 10.1039/c7sc00601b
   * J. Koopman and S. Grimme, ACS Omega 2019, 4, 12, 15120-15133.
     DOI: 10.1021/acsomega.9b02011
   
   for metadynamics refer to:
   * S. Grimme, J. Chem. Theory Comput., 2019, 155, 2847-2862
     DOI: 10.1021/acs.jctc.9b00143
   
   for SPH calculations refer to:
   * S. Spicher and S. Grimme, J. Chem. Theory Comput., 2021, 17, 1701-1714
     DOI: 10.1021/acs.jctc.0c01306
   
   for ONIOM refer to:
   * C. Plett, A. Katbashev, S. Ehlert, S. Grimme, M. Bursch,
     Phys. Chem. Chem. Phys., 2023, 25, 17860-17868. DOI: 10.1039/D3CP02178E
   
   for DIPRO refer to:
   * J. Kohn, N. Gildemeister, S. Grimme, D. Fazzi, A. Hansen,
     J. Chem. Phys., 2023, just accepted.
   
   for PTB refer to:
   * S. Grimme, M. Mueller, A. Hansen, J. Chem. Phys., 2023, 158, 124111.
     DOI: 10.1063/5.0137838
   
   with help from (in alphabetical order)
   P. Atkinson, C. Bannwarth, F. Bohle, G. Brandenburg, E. Caldeweyher
   M. Checinski, S. Dohm, S. Ehlert, S. Ehrlich, I. Gerasimov, C. Hölzer
   A. Katbashev, J. Kohn, J. Koopman, C. Lavigne, S. Lehtola, F. März, M. Müller,
   F. Musil, H. Neugebauer, J. Pisarek, C. Plett, P. Pracht, F. Pultar,
   J. Seibert, P. Shushkov, S. Spicher, M. Stahn, M. Steiner, T. Strunk,
   J. Stückrath, T. Rose, and J. Unsleber
   
 * started run on 2026/01/11 at 02:06:19.038     
   ID    Z sym.   atoms
    1    6 C      1-15
    2    1 H      16-31

           -------------------------------------------------
          |                Calculation Setup                |
           -------------------------------------------------

          program call               : otool_xtb difenylopropan_XTB.xyz --grad -c 0 -u 0 -P 1 --namespace difenylopropan --input difenylopropan_XTB.input.tmp --acc 0.200000
          calculation namespace      : difenylopropan
          coordinate file            : difenylopropan_XTB.xyz
          omp threads                :                     1


           -------------------------------------------------
          |                 G F N 2 - x T B                 |
           -------------------------------------------------

        Reference                      10.1021/acs.jctc.8b01176
      * Hamiltonian:
        H0-scaling (s, p, d)           1.850000    2.230000    2.230000
        zeta-weighting                 0.500000
      * Dispersion:
        s8                             2.700000
        a1                             0.520000
        a2                             5.000000
        s9                             5.000000
      * Repulsion:
        kExp                           1.500000    1.000000
        rExp                           1.000000
      * Coulomb:
        alpha                          2.000000
        third order                    shell-resolved
        anisotropic                    true
        a3                             3.000000
        a5                             4.000000
        cn-shift                       1.200000
        cn-exp                         4.000000
        max-rad                        5.000000


          ...................................................
          :                      SETUP                      :
          :.................................................:
          :  # basis functions                  76          :
          :  # atomic orbitals                  76          :
          :  # shells                           46          :
          :  # electrons                        76          :
          :  max. iterations                   250          :
          :  Hamiltonian                  GFN2-xTB          :
          :  restarted?                      false          :
          :  GBSA solvation                  false          :
          :  PC potential                    false          :
          :  electronic temp.          300.0000000     K    :
          :  accuracy                    0.2000000          :
          :  -> integral cutoff          0.3198970E+02      :
          :  -> integral neglect         0.2000000E-08      :
          :  -> SCF convergence          0.2000000E-06 Eh   :
          :  -> wf. convergence          0.2000000E-04 e    :
          :  Broyden damping             0.4000000          :
          :  net charge                          0          :
          :  unpaired electrons                  0          :
          ...................................................

 iter      E             dE          RMSdq      gap      omega  full diag
   1    -40.6202761 -0.406203E+02  0.501E+00    1.55       0.0  T
   2    -40.6047973  0.154788E-01  0.311E+00    1.23       1.0  T
   3    -40.5104176  0.943798E-01  0.275E+00    2.22       1.0  T
   4    -40.6688080 -0.158390E+00  0.673E-01    1.41       1.0  T
   5    -40.6728368 -0.402883E-02  0.380E-01    1.41       1.0  T
   6    -40.6759576 -0.312084E-02  0.172E-01    1.35       1.0  T
   7    -40.6761074 -0.149828E-03  0.751E-02    1.35       1.0  T
   8    -40.6762057 -0.982097E-04  0.421E-02    1.35       1.0  T
   9    -40.6762313 -0.256521E-04  0.113E-02    1.35       1.6  T
  10    -40.6762337 -0.242606E-05  0.405E-03    1.35       4.4  T
  11    -40.6762340 -0.237628E-06  0.199E-03    1.35       9.0  T
  12    -40.6762340 -0.392736E-07  0.890E-04    1.35      20.2  T
  13    -40.6762340 -0.169426E-07  0.205E-04    1.35      87.6  T
  14    -40.6762340 -0.357559E-09  0.136E-04    1.35     132.0  T
  15    -40.6762340 -0.234955E-09  0.664E-05    1.35     270.3  T

   *** convergence criteria satisfied after 15 iterations ***

         #    Occupation            Energy/Eh            Energy/eV
      -------------------------------------------------------------
         1        2.0000           -0.6561904             -17.8558
       ...           ...                  ...                  ...
        32        2.0000           -0.4233121             -11.5189
        33        2.0000           -0.4165829             -11.3358
        34        2.0000           -0.3972554             -10.8099
        35        2.0000           -0.3882178             -10.5639
        36        2.0000           -0.3829024             -10.4193
        37        2.0000           -0.3613946              -9.8340
        38        2.0000           -0.3057400              -8.3196 (HOMO)
        39                         -0.2562263              -6.9723 (LUMO)
        40                         -0.2473865              -6.7317
        41                         -0.2457040              -6.6859
        42                         -0.2131445              -5.8000
        43                         -0.1530924              -4.1659
       ...                                ...                  ...
        76                          0.5953435              16.2001
      -------------------------------------------------------------
                  HL-Gap            0.0495137 Eh            1.3473 eV
             Fermi-level           -0.2809831 Eh           -7.6459 eV

 SCC (total)                   0 d,  0 h,  0 min,  0.037 sec
 SCC setup                      ...        0 min,  0.000 sec (  0.639%)
 Dispersion                     ...        0 min,  0.000 sec (  0.902%)
 classical contributions        ...        0 min,  0.000 sec (  0.133%)
 integral evaluation            ...        0 min,  0.004 sec ( 10.035%)
 iterations                     ...        0 min,  0.021 sec ( 56.585%)
 molecular gradient             ...        0 min,  0.011 sec ( 31.147%)
 printout                       ...        0 min,  0.000 sec (  0.509%)

         :::::::::::::::::::::::::::::::::::::::::::::::::::::
         ::                     SUMMARY                     ::
         :::::::::::::::::::::::::::::::::::::::::::::::::::::
         :: total energy             -39.880668388402 Eh    ::
         :: gradient norm              0.567823539169 Eh/a0 ::
         :: HOMO-LUMO gap              1.347337614294 eV    ::
         ::.................................................::
         :: SCC energy               -40.675913895862 Eh    ::
         :: -> isotropic ES            0.010774297926 Eh    ::
         :: -> anisotropic ES          0.008973412244 Eh    ::
         :: -> anisotropic XC          0.026647167110 Eh    ::
         :: -> dispersion             -0.028520788223 Eh    ::
         :: repulsion energy           0.795245507460 Eh    ::
         :: add. restraining           0.000000000000 Eh    ::
         :: total charge              -0.000000000000 e     ::
         :::::::::::::::::::::::::::::::::::::::::::::::::::::


Property printout bound to 'properties.out'

           -------------------------------------------------
          | TOTAL ENERGY              -39.880668388402 Eh   |
          | GRADIENT NORM               0.567823539169 Eh/α |
          | HOMO-LUMO GAP               1.347337614294 eV   |
           -------------------------------------------------

------------------------------------------------------------------------
 * finished run on 2026/01/11 at 02:06:19.087     
------------------------------------------------------------------------
 total:
 * wall-time:     0 d,  0 h,  0 min,  0.049 sec
 *  cpu-time:     0 d,  0 h,  0 min,  0.041 sec
 * ratio c/w:     0.836 speedup
 SCF:
 * wall-time:     0 d,  0 h,  0 min,  0.037 sec
 *  cpu-time:     0 d,  0 h,  0 min,  0.031 sec
 * ratio c/w:     0.835 speedup


-------------------------   --------------------
FINAL SINGLE POINT ENERGY       -39.880668388400
-------------------------   --------------------


-------------
DIPOLE MOMENT
-------------
                                X             Y             Z
Total Dipole Moment    :     -0.43300       0.23100       0.86500
                        -----------------------------------------
Magnitude (a.u.)       :      0.99452
Magnitude (Debye)      :      2.52788


------------------
CARTESIAN GRADIENT
------------------

   1   C   :    0.076852650   -0.126363905    0.000604847
   2   C   :   -0.074263982   -0.128377539    0.000413705
   3   C   :   -0.147484652   -0.000039212    0.000142306
   4   C   :   -0.074101674    0.128239546    0.000075321
   5   C   :    0.076691615    0.126695056    0.001234235
   6   C   :    0.082137791    0.000198781    0.007534073
   7   C   :    0.062171336   -0.000632625    0.040374154
   8   C   :    0.038388819   -0.003044688    0.017593024
   9   C   :   -0.043597977    0.063578577   -0.050237274
  10   C   :   -0.046188244   -0.050733411    0.009917496
  11   C   :    0.072887805   -0.124201998    0.012093506
  12   C   :    0.138317737    0.026181677    0.007753872
  13   C   :    0.057388252    0.136171018   -0.018163302
  14   C   :   -0.092794533    0.092876639   -0.000623003
  15   C   :   -0.130458223   -0.080936189    0.061283015
  16   H   :   -0.030715749    0.052942214   -0.000094237
  17   H   :    0.030494212    0.052996087   -0.000049319
  18   H   :    0.061136629   -0.000027059   -0.000059832
  19   H   :    0.030554053   -0.053076337   -0.000135944
  20   H   :   -0.030781943   -0.053196543   -0.000161993
  21   H   :   -0.020491549   -0.062939705   -0.040706994
  22   H   :   -0.020601593    0.062444416   -0.040883028
  23   H   :   -0.049973582   -0.062025546    0.001816144
  24   H   :   -0.047473186    0.062993453    0.002299942
  25   H   :    0.057940340    0.063959888   -0.004633589
  26   H   :    0.041553652   -0.060988329   -0.039114783
  27   H   :   -0.037910476    0.047015638   -0.008789160
  28   H   :   -0.060743168   -0.009566515    0.003716573
  29   H   :   -0.021756417   -0.056925850    0.005122407
  30   H   :    0.037989801   -0.049634026    0.002479765
  31   H   :    0.064832256    0.006416487    0.029198076

Difference to translation invariance:
           :    0.0000000000    0.0000000000   -0.0000000000

Difference to rotation invariance:
           :   -0.0003037143    0.0010360131    0.0004164634

Norm of the Cartesian gradient     ...    0.5678235392
RMS gradient                       ...    0.0588805581
MAX gradient                       ...    0.1474846523
------------------------------------------------------------------------------
                         ORCA GEOMETRY RELAXATION STEP
------------------------------------------------------------------------------

Reading the OPT-File                    .... done
Getting information on internals        .... done
Copying old internal coords+grads       .... done
Making the new internal coordinates     .... (2022 redundants) done
Validating the new internal coordinates .... (2022 redundants) done
Calculating the B-matrix                .... done
Calculating the G,G- and P matrices     .... done
Transforming gradient to internals      .... done
Projecting the internal gradient        .... done
Number of atoms                         ....  31
Number of internal coordinates          .... 175
Current Energy                          ....   -39.880668388 Eh
Current gradient norm                   ....     0.567823539 Eh/bohr
Maximum allowed component of the step   ....  0.300
Current trust radius                    ....  0.300
Evaluating the initial hessian          ....  (Almloef) done
Projecting the Hessian                  .... done
Forming the augmented Hessian           .... done
Diagonalizing the augmented Hessian     .... done
Last element of RFO vector              ....  0.848030792
Lowest eigenvalues of augmented Hessian:
 -0.249424245  0.011913255  0.011913319  0.011913326  0.011913374
Length of the computed step             ....  0.624914756
Warning: the length of the step is outside the trust region - taking restricted step instead
The input lambda is                     ....     0.010913
   iter:   5  x=    0.000730  g= 1244.811546 f(x)=     6.044609
   iter:  10  x=   -0.557840  g=    0.937859 f(x)=     0.227890
   iter:  15  x=   -0.935005  g=    0.133713 f(x)=     0.000000
The output lambda is                    ....    -0.935005 (17 iterations)
The final length of the internal step   ....  0.300000000
Converting the step to Cartesian space:
 Initial RMS(Int)=    0.0226778684
Transforming coordinates:
 Iter   0:  RMS(Cart)=    0.0675792110 RMS(Int)=    1.7761370795
done
Storing new coordinates                 .... done

                                .--------------------.
          ----------------------|Geometry convergence|-------------------------
          Item                value                   Tolerance       Converged
          ---------------------------------------------------------------------
          RMS gradient        0.0308431203            0.0001000000      NO
          MAX gradient        0.0868646993            0.0003000000      NO
          RMS step            0.0226778684            0.0020000000      NO
          MAX step            0.0642480780            0.0040000000      NO
          -------------------------------------------------------------------------
          ........................................................
          Max(Bonds)      0.0340      Max(Angles)    1.90
          Max(Dihed)        1.20      Max(Improp)    0.00
          ---------------------------------------------------------------------

    ---------------------------------------------------------------------------
                         Redundant Internal Coordinates
                            (Angstroem and degrees)

        Definition                    Value    dE/dq     Step     New-Value
    ----------------------------------------------------------------------------
     1. B(C   1,C   0)                1.5000  0.086865 -0.0340    1.4660   
     2. B(C   2,C   1)                1.5000  0.086717 -0.0339    1.4661   
     3. B(C   3,C   2)                1.5000  0.086864 -0.0340    1.4660   
     4. B(C   4,C   3)                1.5000  0.086822 -0.0340    1.4660   
     5. B(C   5,C   4)                1.5000  0.083977 -0.0329    1.4671   
     6. B(C   5,C   0)                1.5000  0.084060 -0.0329    1.4671   
     7. B(C   6,C   5)                1.5000 -0.000470  0.0002    1.5002   
     8. B(C   7,C   6)                1.5000 -0.038285  0.0150    1.5150   
     9. B(C   8,C   7)                1.5000 -0.027477  0.0108    1.5108   
    10. B(C   9,C   8)                1.5000 -0.024025  0.0105    1.5105   
    11. B(C  10,C   9)                1.5000  0.064418 -0.0250    1.4750   
    12. B(C  11,C  10)                1.5000  0.081616 -0.0320    1.4680   
    13. B(C  12,C  11)                1.5000  0.076960 -0.0304    1.4696   
    14. B(C  13,C  12)                1.5000  0.084863 -0.0335    1.4665   
    15. B(C  14,C   8)                1.8155 -0.070252  0.0339    1.8494   
    16. B(C  14,C  13)                1.5000  0.068103 -0.0266    1.4734   
    17. B(C  14,C   9)                1.5000  0.018608 -0.0071    1.4929   
    18. B(H  15,C   0)                1.0000 -0.061209  0.0226    1.0226   
    19. B(H  16,C   1)                1.0000 -0.061142  0.0225    1.0225   
    20. B(H  17,C   2)                1.0000 -0.061133  0.0225    1.0225   
    21. B(H  18,C   3)                1.0000 -0.061240  0.0226    1.0226   
    22. B(H  19,C   4)                1.0000 -0.061462  0.0226    1.0226   
    23. B(H  20,C   6)                1.0000 -0.077655  0.0286    1.0286   
    24. B(H  21,C   6)                1.0000 -0.077384  0.0285    1.0285   
    25. B(H  22,C   7)                1.0000 -0.079555  0.0293    1.0293   
    26. B(H  23,C   7)                1.0000 -0.078832  0.0290    1.0290   
    27. B(H  24,C   8)                1.0000 -0.086257  0.0318    1.0318   
    28. B(H  25,C   8)                1.0000 -0.072764  0.0268    1.0268   
    29. B(H  26,C  10)                1.0000 -0.060971  0.0225    1.0225   
    30. B(H  27,C  11)                1.0000 -0.061546  0.0227    1.0227   
    31. B(H  28,C  12)                1.0000 -0.061110  0.0225    1.0225   
    32. B(H  29,C  13)                1.0000 -0.062420  0.0230    1.0230   
    33. B(H  30,C  14)                1.0000 -0.064465  0.0238    1.0238   
    34. A(C   1,C   0,H  15)          120.00  0.000106   -0.00    120.00   
    35. A(C   1,C   0,C   5)          120.00 -0.000468    0.02    120.02   
    36. A(C   5,C   0,H  15)          120.00  0.000362   -0.02    119.98   
    37. A(C   2,C   1,H  16)          120.00  0.000185   -0.01    119.99   
    38. A(C   0,C   1,H  16)          120.00  0.000365   -0.02    119.98   
    39. A(C   0,C   1,C   2)          120.00 -0.000550    0.02    120.02   
    40. A(C   1,C   2,H  17)          120.00 -0.000070    0.00    120.00   
    41. A(C   1,C   2,C   3)          120.00  0.000095   -0.00    120.00   
    42. A(C   3,C   2,H  17)          120.00 -0.000025    0.00    120.00   
    43. A(C   4,C   3,H  18)          120.00  0.000233   -0.01    119.99   
    44. A(C   2,C   3,C   4)          120.00 -0.000319    0.01    120.01   
    45. A(C   2,C   3,H  18)          120.00  0.000087   -0.00    120.00   
    46. A(C   3,C   4,C   5)          120.00 -0.000694    0.03    120.03   
    47. A(C   3,C   4,H  19)          120.00  0.000290   -0.01    119.99   
    48. A(C   5,C   4,H  19)          120.00  0.000403   -0.02    119.98   
    49. A(C   0,C   5,C   6)          120.00 -0.001459    0.06    120.06   
    50. A(C   0,C   5,C   4)          120.00  0.001935   -0.08    119.92   
    51. A(C   4,C   5,C   6)          120.00 -0.000476    0.02    120.02   
    52. A(C   7,C   6,H  20)          106.88 -0.008822    0.39    107.27   
    53. A(C   7,C   6,H  21)          106.88 -0.008206    0.37    107.24   
    54. A(H  20,C   6,H  21)          109.00  0.002265   -0.07    108.93   
    55. A(C   5,C   6,C   7)          120.00  0.024159   -1.07    118.93   
    56. A(C   5,C   6,H  20)          106.88 -0.004922    0.20    107.08   
    57. A(C   5,C   6,H  21)          106.88 -0.005369    0.22    107.10   
    58. A(C   8,C   7,H  23)          106.88 -0.004576    0.20    107.08   
    59. A(C   8,C   7,H  22)          106.88 -0.008305    0.36    107.24   
    60. A(C   6,C   7,C   8)          120.00  0.031401   -1.39    118.61   
    61. A(C   6,C   7,H  22)          106.88 -0.010895    0.49    107.37   
    62. A(H  22,C   7,H  23)          109.00  0.002968   -0.11    108.89   
    63. A(C   6,C   7,H  23)          106.88 -0.011754    0.50    107.38   
    64. A(C  14,C   8,H  25)           54.68 -0.040278    1.90     56.58   
    65. A(C   7,C   8,H  25)          106.88  0.022512   -1.02    105.86   
    66. A(H  24,C   8,H  25)          109.00  0.007277   -0.32    108.68   
    67. A(C   9,C   8,H  25)          106.88 -0.015282    0.67    107.55   
    68. A(C  14,C   8,H  24)          114.54 -0.003209    0.12    114.67   
    69. A(C   9,C   8,H  24)          106.88 -0.007542    0.37    107.25   
    70. A(C   7,C   8,H  24)          106.88  0.005328   -0.17    106.70   
    71. A(C   7,C   8,C   9)          120.00 -0.010662    0.40    120.40   
    72. A(C   9,C   8,C  14)           52.76  0.024732   -1.21     51.55   
    73. A(C   7,C   8,C  14)          138.19 -0.003414    0.13    138.32   
    74. A(C   8,C   9,C  10)          120.00  0.008590   -0.37    119.63   
    75. A(C  10,C   9,C  14)          120.00  0.017556   -0.85    119.15   
    76. A(C   8,C   9,C  14)           74.48 -0.029679    1.53     76.01   
    77. A(C   9,C  10,C  11)          120.00 -0.004675    0.26    120.26   
    78. A(C  11,C  10,H  26)          120.00  0.002175   -0.12    119.88   
    79. A(C   9,C  10,H  26)          120.00  0.002500   -0.14    119.86   
    80. A(C  10,C  11,C  12)          120.00 -0.006226    0.26    120.26   
    81. A(C  12,C  11,H  27)          120.00  0.003839   -0.16    119.84   
    82. A(C  10,C  11,H  27)          120.00  0.002387   -0.10    119.90   
    83. A(C  11,C  12,C  13)          120.00 -0.008982    0.36    120.36   
    84. A(C  13,C  12,H  28)          120.00  0.005043   -0.21    119.79   
    85. A(C  11,C  12,H  28)          120.00  0.003939   -0.16    119.84   
    86. A(C  14,C  13,H  29)          120.00 -0.003349    0.14    120.14   
    87. A(C  12,C  13,H  29)          120.00 -0.001054    0.04    120.04   
    88. A(C  12,C  13,C  14)          120.00  0.004403   -0.18    119.82   
    89. A(C  13,C  14,H  30)          120.00  0.003841   -0.16    119.84   
    90. A(C   9,C  14,H  30)          120.00 -0.001763    0.03    120.03   
    91. A(C   8,C  14,H  30)           89.96 -0.011216    0.61     90.57   
    92. A(C   9,C  14,C  13)          120.00 -0.002078    0.13    120.13   
    93. A(C   8,C  14,C  13)          127.30 -0.004510    0.31    127.60   
    94. A(C   8,C  14,C   9)           52.76  0.004947   -0.32     52.44   
    95. D(H  16,C   1,C   0,C   5)    179.95 -0.000061    0.00    179.95   
    96. D(H  16,C   1,C   0,H  15)     -0.05 -0.000135    0.01     -0.04   
    97. D(C   2,C   1,C   0,C   5)     -0.05 -0.000005    0.00     -0.05   
    98. D(C   2,C   1,C   0,H  15)    179.95 -0.000079    0.00    179.95   
    99. D(H  17,C   2,C   1,C   0)   -179.99 -0.000088    0.01   -179.98   
   100. D(C   3,C   2,C   1,H  16)   -179.99 -0.000069    0.00   -179.99   
   101. D(C   3,C   2,C   1,C   0)      0.01 -0.000125    0.01      0.02   
   102. D(H  17,C   2,C   1,H  16)      0.01 -0.000032    0.00      0.01   
   103. D(H  18,C   3,C   2,H  17)      0.01  0.000013   -0.00      0.01   
   104. D(C   4,C   3,C   2,C   1)      0.01  0.000002    0.00      0.01   
   105. D(C   4,C   3,C   2,H  17)   -179.99 -0.000036    0.00   -179.99   
   106. D(H  18,C   3,C   2,C   1)   -179.99  0.000050   -0.00   -179.99   
   107. D(H  19,C   4,C   3,C   2)   -179.99  0.000123   -0.01   -180.00   
   108. D(C   5,C   4,C   3,H  18)   -179.99  0.000203   -0.01   -180.00   
   109. D(C   5,C   4,C   3,C   2)      0.01  0.000252   -0.01     -0.00   
   110. D(H  19,C   4,C   3,H  18)      0.01  0.000074   -0.00      0.01   
   111. D(C   6,C   5,C   4,H  19)     -0.05  0.000717   -0.04     -0.09   
   112. D(C   0,C   5,C   4,H  19)    179.95 -0.000255    0.01    179.96   
   113. D(C   6,C   5,C   0,H  15)      0.07 -0.000637    0.04      0.11   
   114. D(C   4,C   5,C   0,H  15)   -179.93  0.000335   -0.02   -179.95   
   115. D(C   0,C   5,C   4,C   3)     -0.05 -0.000384    0.02     -0.03   
   116. D(C   6,C   5,C   4,C   3)    179.95  0.000587   -0.03    179.92   
   117. D(C   4,C   5,C   0,C   1)      0.07  0.000261   -0.02      0.05   
   118. D(C   6,C   5,C   0,C   1)   -179.93 -0.000711    0.04   -179.89   
   119. D(H  21,C   6,C   5,C   0)    -31.96 -0.001207    0.06    -31.90   
   120. D(H  20,C   6,C   5,C   4)     31.45  0.000262   -0.01     31.44   
   121. D(H  20,C   6,C   5,C   0)   -148.55  0.001233   -0.07   -148.62   
   122. D(C   7,C   6,C   5,C   4)    -90.26 -0.000734    0.04    -90.21   
   123. D(C   7,C   6,C   5,C   0)     89.74  0.000238   -0.01     89.73   
   124. D(C   8,C   7,C   6,H  20)   -121.16 -0.003576    0.18   -120.98   
   125. D(C   8,C   7,C   6,C   5)      0.55 -0.000665    0.03      0.57   
   126. D(H  22,C   7,C   6,H  21)   -116.04  0.003863   -0.20   -116.24   
   127. D(H  22,C   7,C   6,H  20)      0.55 -0.001886    0.10      0.65   
   128. D(H  22,C   7,C   6,C   5)    122.25  0.001025   -0.05    122.20   
   129. D(C   8,C   7,C   6,H  21)    122.25  0.002173   -0.12    122.13   
   130. D(H  24,C   8,C   7,C   6)    -54.83  0.000045   -0.07    -54.90   
   131. D(C  14,C   8,C   7,H  23)   -121.09 -0.010714    0.58   -120.51   
   132. D(C  14,C   8,C   7,H  22)     -4.50 -0.013613    0.73     -3.77   
   133. D(C   9,C   8,C   7,H  23)    -54.83  0.015755   -0.83    -55.67   
   134. D(C   9,C   8,C   7,C   6)   -176.54  0.013273   -0.70   -177.24   
   135. D(C   9,C   8,C   7,H  22)     61.76  0.012855   -0.69     61.07   
   136. D(C  14,C   8,C   7,C   6)    117.21 -0.013195    0.71    117.92   
   137. D(C  14,C   9,C   8,H  24)    108.34  0.002920   -0.18    108.15   
   138. D(C  14,C   9,C   8,C   7)   -129.96 -0.003986    0.18   -129.78   
   139. D(C  10,C   9,C   8,H  25)    107.78  0.010729   -0.52    107.26   
   140. D(C  10,C   9,C   8,H  24)   -135.63  0.007921   -0.38   -136.01   
   141. D(C  10,C   9,C   8,C  14)    116.03  0.005001   -0.19    115.84   
   142. D(C  10,C   9,C   8,C   7)    -13.93  0.001015   -0.01    -13.94   
   143. D(H  26,C  10,C   9,C  14)    179.95 -0.006306    0.34    180.29   
   144. D(H  26,C  10,C   9,C   8)     91.29  0.017087   -0.93     90.36   
   145. D(C  11,C  10,C   9,C  14)     -0.05 -0.001785    0.08      0.03   
   146. D(C  11,C  10,C   9,C   8)    -88.71  0.021607   -1.20    -89.91   
   147. D(H  27,C  11,C  10,H  26)      0.01  0.003247   -0.18     -0.17   
   148. D(H  27,C  11,C  10,C   9)   -179.99 -0.001274    0.08   -179.91   
   149. D(C  12,C  11,C  10,H  26)   -179.99  0.003182   -0.15   -180.14   
   150. D(C  12,C  11,C  10,C   9)      0.01 -0.001338    0.11      0.12   
   151. D(H  28,C  12,C  11,H  27)      0.01  0.002135   -0.12     -0.11   
   152. D(H  28,C  12,C  11,C  10)   -179.99  0.002200   -0.15   -180.14   
   153. D(C  13,C  12,C  11,H  27)   -179.99  0.003852   -0.22   -180.21   
   154. D(C  13,C  12,C  11,C  10)      0.01  0.003916   -0.24     -0.23   
   155. D(H  29,C  13,C  12,C  11)   -179.99  0.000613   -0.04   -180.03   
   156. D(C  14,C  13,C  12,H  28)   -179.99 -0.001677    0.09   -179.90   
   157. D(C  14,C  13,C  12,C  11)      0.01 -0.003393    0.19      0.20   
   158. D(H  29,C  13,C  12,H  28)      0.01  0.002329   -0.14     -0.13   
   159. D(H  30,C  14,C  13,C  12)    179.95 -0.014107    0.85    180.80   
   160. D(C   9,C  14,C  13,H  29)    179.95 -0.003725    0.23    180.18   
   161. D(C   8,C  14,C  13,H  29)   -116.07  0.000240   -0.02   -116.09   
   162. D(C   8,C  14,C  13,C  12)     63.93  0.004246   -0.25     63.68   
   163. D(H  30,C  14,C   9,C  10)   -179.93  0.016699   -0.99   -180.92   
   164. D(H  30,C  14,C   9,C   8)    -63.90  0.011103   -0.62    -64.52   
   165. D(C  13,C  14,C   9,C  10)      0.07  0.002311   -0.14     -0.07   
   166. D(C  13,C  14,C   9,C   8)    116.10 -0.003286    0.23    116.33   
   167. D(C   8,C  14,C   9,C  10)   -116.03  0.005597   -0.37   -116.40   
   168. D(C  13,C  14,C   8,H  25)     68.15 -0.001828    0.08     68.23   
   169. D(C  13,C  14,C   8,H  24)    164.76 -0.005583    0.30    165.06   
   170. D(C  13,C  14,C   8,C   9)   -102.15 -0.002905    0.20   -101.95   
   171. D(C  13,C  14,C   8,C   7)     -6.86  0.007906   -0.50     -7.36   
   172. D(C   9,C  14,C  13,C  12)     -0.05  0.000282    0.00     -0.05   
   173. D(C   9,C  14,C   8,H  25)    170.31  0.001077   -0.12    170.19   
   174. D(C   9,C  14,C   8,H  24)    -93.09 -0.002678    0.10    -92.98   
   175. D(C   9,C  14,C   8,C   7)     95.29  0.010811   -0.70     94.59   
    ----------------------------------------------------------------------------

Geometry step timings:
Preparation and reading OPT file:      0.000 s ( 0.261 %)
Internal coordinates            :      0.000 s ( 0.362 %)
B/P matrices and projection     :      0.003 s (32.616 %)
Hessian update/contruction      :      0.001 s (12.461 %)
Making the step                 :      0.004 s (44.212 %)
Converting the step to Cartesian:      0.000 s ( 2.756 %)
Storing new data                :      0.000 s ( 0.593 %)
Checking convergence            :      0.000 s ( 0.473 %)
Final printing                  :      0.001 s ( 6.256 %)
Total time                      :      0.010 s

Time for energy+gradient        :      0.054 s
Time for complete geometry iter :      0.065 s

         *************************************************************
         *                GEOMETRY OPTIMIZATION CYCLE   2            *
         *************************************************************
---------------------------------
CARTESIAN COORDINATES (ANGSTROEM)
---------------------------------
  C     0.010112    0.029605   -0.018416
  C    -1.455282    0.038686   -0.059707
  C    -2.180805    1.312538   -0.075649
  C    -1.440790    2.577817   -0.050682
  C     0.024642    2.569590   -0.009994
  C     0.751584    1.295311    0.005876
  C     2.251220    1.287148    0.045597
  C     3.018817    1.281760   -1.260520
  C     2.242113    1.298116   -2.556220
  C     2.964413    1.230654   -3.881244
  C     4.420953    1.458141   -3.930371
  C     4.951995    2.812845   -4.124875
  C     4.036782    3.953543   -4.269594
  C     2.585129    3.749514   -4.226300
  C     2.041286    2.393970   -4.032351
  H     0.515690   -0.859139   -0.006612
  H    -1.971483   -0.843803   -0.077338
  H    -3.202913    1.318499   -0.104213
  H    -1.946825    3.466325   -0.061690
  H     0.540446    3.452453    0.007456
  H     2.544195    2.123041    0.568564
  H     2.535368    0.449045    0.569697
  H     3.630350    2.109716   -1.260932
  H     3.604038    0.435373   -1.269647
  H     1.590922    0.498534   -2.521702
  H     1.696005    2.167589   -2.545098
  H     5.063128    0.668536   -3.832542
  H     5.962845    2.964026   -4.159484
  H     4.413793    4.894657   -4.402663
  H     1.952633    4.547215   -4.327040
  H     1.027933    2.249519   -4.014426

----------------------------
CARTESIAN COORDINATES (A.U.)
----------------------------
  NO LB    ZA    FRAG    MASS        X           Y           Z
   0 C   6.0000    1    12.011    0.019108    0.055945   -0.034802
   1 C   6.0000    1    12.011   -2.750085    0.073107   -0.112829
   2 C   6.0000    1    12.011   -4.121123    2.480337   -0.142957
   3 C   6.0000    1    12.011   -2.722698    4.871368   -0.095774
   4 C   6.0000    1    12.011    0.046568    4.855821   -0.018885
   5 C   6.0000    1    12.011    1.420288    2.447784    0.011105
   6 C   6.0000    1    12.011    4.254189    2.432358    0.086166
   7 C   6.0000    1    12.011    5.704738    2.422175   -2.382037
   8 C   6.0000    1    12.011    4.236979    2.453084   -4.830556
   9 C   6.0000    1    12.011    5.601928    2.325599   -7.334489
  10 C   6.0000    1    12.011    8.354391    2.755487   -7.427325
  11 C   6.0000    1    12.011    9.357915    5.315507   -7.794883
  12 C   6.0000    1    12.011    7.628413    7.471114   -8.068363
  13 C   6.0000    1    12.011    4.885186    7.085554   -7.986550
  14 C   6.0000    1    12.011    3.857472    4.523948   -7.620040
  15 H   1.0000    1     1.008    0.974512   -1.623538   -0.012494
  16 H   1.0000    1     1.008   -3.725564   -1.594557   -0.146147
  17 H   1.0000    1     1.008   -6.052628    2.491601   -0.196935
  18 H   1.0000    1     1.008   -3.678965    6.550406   -0.116578
  19 H   1.0000    1     1.008    1.021295    6.524190    0.014089
  20 H   1.0000    1     1.008    4.807831    4.011965    1.074430
  21 H   1.0000    1     1.008    4.791150    0.848572    1.076570
  22 H   1.0000    1     1.008    6.860367    3.986786   -2.382816
  23 H   1.0000    1     1.008    6.810644    0.822735   -2.399286
  24 H   1.0000    1     1.008    3.006407    0.942092   -4.765326
  25 H   1.0000    1     1.008    3.204985    4.096149   -4.809538
  26 H   1.0000    1     1.008    9.567925    1.263350   -7.242454
  27 H   1.0000    1     1.008   11.268144    5.601197   -7.860285
  28 H   1.0000    1     1.008    8.340860    9.249562   -8.319827
  29 H   1.0000    1     1.008    3.689941    8.592991   -8.176920
  30 H   1.0000    1     1.008    1.942513    4.250975   -7.586166

      -----------------------------------------------------------      
     |                   =====================                   |     
     |                           x T B                           |     
     |                   =====================                   |     
     |                         S. Grimme                         |     
     |          Mulliken Center for Theoretical Chemistry        |     
     |                    University of Bonn                     |     
      -----------------------------------------------------------      

   * xtb version 6.7.1 (edcfbbe) compiled by 'albert@albert-system' on 2024-07-22

   xtb is free software: you can redistribute it and/or modify it under
   the terms of the GNU Lesser General Public License as published by
   the Free Software Foundation, either version 3 of the License, or
   (at your option) any later version.
   
   xtb is distributed in the hope that it will be useful,
   but WITHOUT ANY WARRANTY; without even the implied warranty of
   MERCHANTABILITY or FITNESS FOR A PARTICULAR PURPOSE.  See the
   GNU Lesser General Public License for more details.
   
   Cite this work as:
   * C. Bannwarth, E. Caldeweyher, S. Ehlert, A. Hansen, P. Pracht,
     J. Seibert, S. Spicher, S. Grimme, WIREs Comput. Mol. Sci., 2020, 11,
     e01493. DOI: 10.1002/wcms.1493
   
   for GFN2-xTB:
   * C. Bannwarth, S. Ehlert and S. Grimme., J. Chem. Theory Comput., 2019,
     15, 1652-1671. DOI: 10.1021/acs.jctc.8b01176
   for GFN1-xTB:
   * S. Grimme, C. Bannwarth, P. Shushkov, J. Chem. Theory Comput., 2017,
     13, 1989-2009. DOI: 10.1021/acs.jctc.7b00118
   for GFN0-xTB:
   * P. Pracht, E. Caldeweyher, S. Ehlert, S. Grimme, ChemRxiv, 2019, preprint.
     DOI: 10.26434/chemrxiv.8326202.v1
   for GFN-FF:
   * S. Spicher and S. Grimme, Angew. Chem. Int. Ed., 2020, 59, 15665-15673.
     DOI: 10.1002/anie.202004239
   
   for ALPB and GBSA implicit solvation:
   * S. Ehlert, M. Stahn, S. Spicher, S. Grimme, J. Chem. Theory Comput.,
     2021, 17, 4250-4261. DOI: 10.1021/acs.jctc.1c00471
   
   for ddCOSMO and CPCM-X implicit solvation:
   * M. Stahn, S. Ehlert, S. Grimme, J. Phys. Chem. A,
     2023, XX, XXXX-XXXX. DOI: 10.1021/acs.jpca.3c04382
   
   for DFT-D4:
   * E. Caldeweyher, C. Bannwarth and S. Grimme, J. Chem. Phys., 2017,
     147, 034112. DOI: 10.1063/1.4993215
   * E. Caldeweyher, S. Ehlert, A. Hansen, H. Neugebauer, S. Spicher,
     C. Bannwarth and S. Grimme, J. Chem. Phys., 2019, 150, 154122.
     DOI: 10.1063/1.5090222
   * E. Caldeweyher, J.-M. Mewes, S. Ehlert and S. Grimme, Phys. Chem. Chem. Phys.
     2020, 22, 8499-8512. DOI: 10.1039/D0CP00502A
   
   for sTDA-xTB:
   * S. Grimme and C. Bannwarth, J. Chem. Phys., 2016, 145, 054103.
     DOI: 10.1063/1.4959605
   
   in the mass-spec context:
   * V. Asgeirsson, C. Bauer and S. Grimme, Chem. Sci., 2017, 8, 4879.
     DOI: 10.1039/c7sc00601b
   * J. Koopman and S. Grimme, ACS Omega 2019, 4, 12, 15120-15133.
     DOI: 10.1021/acsomega.9b02011
   
   for metadynamics refer to:
   * S. Grimme, J. Chem. Theory Comput., 2019, 155, 2847-2862
     DOI: 10.1021/acs.jctc.9b00143
   
   for SPH calculations refer to:
   * S. Spicher and S. Grimme, J. Chem. Theory Comput., 2021, 17, 1701-1714
     DOI: 10.1021/acs.jctc.0c01306
   
   for ONIOM refer to:
   * C. Plett, A. Katbashev, S. Ehlert, S. Grimme, M. Bursch,
     Phys. Chem. Chem. Phys., 2023, 25, 17860-17868. DOI: 10.1039/D3CP02178E
   
   for DIPRO refer to:
   * J. Kohn, N. Gildemeister, S. Grimme, D. Fazzi, A. Hansen,
     J. Chem. Phys., 2023, just accepted.
   
   for PTB refer to:
   * S. Grimme, M. Mueller, A. Hansen, J. Chem. Phys., 2023, 158, 124111.
     DOI: 10.1063/5.0137838
   
   with help from (in alphabetical order)
   P. Atkinson, C. Bannwarth, F. Bohle, G. Brandenburg, E. Caldeweyher
   M. Checinski, S. Dohm, S. Ehlert, S. Ehrlich, I. Gerasimov, C. Hölzer
   A. Katbashev, J. Kohn, J. Koopman, C. Lavigne, S. Lehtola, F. März, M. Müller,
   F. Musil, H. Neugebauer, J. Pisarek, C. Plett, P. Pracht, F. Pultar,
   J. Seibert, P. Shushkov, S. Spicher, M. Stahn, M. Steiner, T. Strunk,
   J. Stückrath, T. Rose, and J. Unsleber
   
 * started run on 2026/01/11 at 02:06:19.102     
   ID    Z sym.   atoms
    1    6 C      1-15
    2    1 H      16-31

           -------------------------------------------------
          |                Calculation Setup                |
           -------------------------------------------------

          program call               : otool_xtb difenylopropan_XTB.xyz --grad -c 0 -u 0 -P 1 --namespace difenylopropan --input difenylopropan_XTB.input.tmp --acc 0.200000
          calculation namespace      : difenylopropan
          coordinate file            : difenylopropan_XTB.xyz
          omp threads                :                     1


           -------------------------------------------------
          |                 G F N 2 - x T B                 |
           -------------------------------------------------

        Reference                      10.1021/acs.jctc.8b01176
      * Hamiltonian:
        H0-scaling (s, p, d)           1.850000    2.230000    2.230000
        zeta-weighting                 0.500000
      * Dispersion:
        s8                             2.700000
        a1                             0.520000
        a2                             5.000000
        s9                             5.000000
      * Repulsion:
        kExp                           1.500000    1.000000
        rExp                           1.000000
      * Coulomb:
        alpha                          2.000000
        third order                    shell-resolved
        anisotropic                    true
        a3                             3.000000
        a5                             4.000000
        cn-shift                       1.200000
        cn-exp                         4.000000
        max-rad                        5.000000

q/qsh data taken from xtbrestart
CAMM data taken from xtbrestart

          ...................................................
          :                      SETUP                      :
          :.................................................:
          :  # basis functions                  76          :
          :  # atomic orbitals                  76          :
          :  # shells                           46          :
          :  # electrons                        76          :
          :  max. iterations                   250          :
          :  Hamiltonian                  GFN2-xTB          :
          :  restarted?                       true          :
          :  GBSA solvation                  false          :
          :  PC potential                    false          :
          :  electronic temp.          300.0000000     K    :
          :  accuracy                    0.2000000          :
          :  -> integral cutoff          0.3198970E+02      :
          :  -> integral neglect         0.2000000E-08      :
          :  -> SCF convergence          0.2000000E-06 Eh   :
          :  -> wf. convergence          0.2000000E-04 e    :
          :  Broyden damping             0.4000000          :
          :  net charge                          0          :
          :  unpaired electrons                  0          :
          ...................................................

 iter      E             dE          RMSdq      gap      omega  full diag
   1    -40.7286342 -0.407286E+02  0.316E-01    1.50       0.0  T
   2    -40.7290070 -0.372798E-03  0.208E-01    1.49       1.0  T
   3    -40.7289918  0.151824E-04  0.160E-01    1.47       1.0  T
   4    -40.7291746 -0.182794E-03  0.712E-02    1.50       1.0  T
   5    -40.7293411 -0.166443E-03  0.356E-02    1.47       1.0  T
   6    -40.7293768 -0.357270E-04  0.757E-03    1.48       2.4  T
   7    -40.7293777 -0.840967E-06  0.335E-03    1.48       5.4  T
   8    -40.7293778 -0.120174E-06  0.124E-03    1.48      14.5  T
   9    -40.7293778 -0.205682E-07  0.381E-04    1.48      47.1  T
  10    -40.7293778 -0.885393E-09  0.246E-04    1.48      73.0  T
  11    -40.7293778 -0.102202E-08  0.648E-05    1.48     277.2  T
  12    -40.7293778 -0.229150E-10  0.278E-05    1.48     645.3  T

   *** convergence criteria satisfied after 12 iterations ***

         #    Occupation            Energy/Eh            Energy/eV
      -------------------------------------------------------------
         1        2.0000           -0.6500023             -17.6875
       ...           ...                  ...                  ...
        32        2.0000           -0.4231348             -11.5141
        33        2.0000           -0.4184305             -11.3861
        34        2.0000           -0.4024948             -10.9524
        35        2.0000           -0.3926703             -10.6851
        36        2.0000           -0.3868147             -10.5258
        37        2.0000           -0.3675162             -10.0006
        38        2.0000           -0.3105433              -8.4503 (HOMO)
        39                         -0.2560988              -6.9688 (LUMO)
        40                         -0.2409599              -6.5569
        41                         -0.2395873              -6.5195
        42                         -0.2130732              -5.7980
        43                         -0.1385655              -3.7706
       ...                                ...                  ...
        76                          0.5847748              15.9125
      -------------------------------------------------------------
                  HL-Gap            0.0544445 Eh            1.4815 eV
             Fermi-level           -0.2833210 Eh           -7.7096 eV

 SCC (total)                   0 d,  0 h,  0 min,  0.028 sec
[...]
   
   for metadynamics refer to:
   * S. Grimme, J. Chem. Theory Comput., 2019, 155, 2847-2862
     DOI: 10.1021/acs.jctc.9b00143
   
   for SPH calculations refer to:
   * S. Spicher and S. Grimme, J. Chem. Theory Comput., 2021, 17, 1701-1714
     DOI: 10.1021/acs.jctc.0c01306
   
   for ONIOM refer to:
   * C. Plett, A. Katbashev, S. Ehlert, S. Grimme, M. Bursch,
     Phys. Chem. Chem. Phys., 2023, 25, 17860-17868. DOI: 10.1039/D3CP02178E
   
   for DIPRO refer to:
   * J. Kohn, N. Gildemeister, S. Grimme, D. Fazzi, A. Hansen,
     J. Chem. Phys., 2023, just accepted.
   
   for PTB refer to:
   * S. Grimme, M. Mueller, A. Hansen, J. Chem. Phys., 2023, 158, 124111.
     DOI: 10.1063/5.0137838
   
   with help from (in alphabetical order)
   P. Atkinson, C. Bannwarth, F. Bohle, G. Brandenburg, E. Caldeweyher
   M. Checinski, S. Dohm, S. Ehlert, S. Ehrlich, I. Gerasimov, C. Hölzer
   A. Katbashev, J. Kohn, J. Koopman, C. Lavigne, S. Lehtola, F. März, M. Müller,
   F. Musil, H. Neugebauer, J. Pisarek, C. Plett, P. Pracht, F. Pultar,
   J. Seibert, P. Shushkov, S. Spicher, M. Stahn, M. Steiner, T. Strunk,
   J. Stückrath, T. Rose, and J. Unsleber
   
 * started run on 2026/01/11 at 02:06:20.304     
   ID    Z sym.   atoms
    1    6 C      1-15
    2    1 H      16-31

           -------------------------------------------------
          |                Calculation Setup                |
           -------------------------------------------------

          program call               : otool_xtb difenylopropan_XTB.xyz --grad -c 0 -u 0 -P 1 --namespace difenylopropan --input difenylopropan_XTB.input.tmp --acc 0.200000
          calculation namespace      : difenylopropan
          coordinate file            : difenylopropan_XTB.xyz
          omp threads                :                     1


           -------------------------------------------------
          |                 G F N 2 - x T B                 |
           -------------------------------------------------

        Reference                      10.1021/acs.jctc.8b01176
      * Hamiltonian:
        H0-scaling (s, p, d)           1.850000    2.230000    2.230000
        zeta-weighting                 0.500000
      * Dispersion:
        s8                             2.700000
        a1                             0.520000
        a2                             5.000000
        s9                             5.000000
      * Repulsion:
        kExp                           1.500000    1.000000
        rExp                           1.000000
      * Coulomb:
        alpha                          2.000000
        third order                    shell-resolved
        anisotropic                    true
        a3                             3.000000
        a5                             4.000000
        cn-shift                       1.200000
        cn-exp                         4.000000
        max-rad                        5.000000

q/qsh data taken from xtbrestart
CAMM data taken from xtbrestart

          ...................................................
          :                      SETUP                      :
          :.................................................:
          :  # basis functions                  76          :
          :  # atomic orbitals                  76          :
          :  # shells                           46          :
          :  # electrons                        76          :
          :  max. iterations                   250          :
          :  Hamiltonian                  GFN2-xTB          :
          :  restarted?                       true          :
          :  GBSA solvation                  false          :
          :  PC potential                    false          :
          :  electronic temp.          300.0000000     K    :
          :  accuracy                    0.2000000          :
          :  -> integral cutoff          0.3198970E+02      :
          :  -> integral neglect         0.2000000E-08      :
          :  -> SCF convergence          0.2000000E-06 Eh   :
          :  -> wf. convergence          0.2000000E-04 e    :
          :  Broyden damping             0.4000000          :
          :  net charge                          0          :
          :  unpaired electrons                  0          :
          ...................................................

 iter      E             dE          RMSdq      gap      omega  full diag
   1    -41.0093084 -0.410093E+02  0.104E-02    4.57       0.0  T
   2    -41.0093084 -0.710975E-08  0.610E-03    4.57       2.9  T
   3    -41.0093084  0.768935E-09  0.312E-04    4.57      57.5  T
   4    -41.0093084 -0.277364E-08  0.116E-04    4.57     155.4  T
   5    -41.0093084 -0.171426E-09  0.571E-05    4.57     314.6  T

   *** convergence criteria satisfied after 5 iterations ***

         #    Occupation            Energy/Eh            Energy/eV
      -------------------------------------------------------------
         1        2.0000           -0.6422339             -17.4761
       ...           ...                  ...                  ...
        32        2.0000           -0.4176982             -11.3661
        33        2.0000           -0.4156852             -11.3114
        34        2.0000           -0.4127639             -11.2319
        35        2.0000           -0.4004279             -10.8962
        36        2.0000           -0.3981188             -10.8334
        37        2.0000           -0.3938252             -10.7165
        38        2.0000           -0.3871837             -10.5358 (HOMO)
        39                         -0.2194109              -5.9705 (LUMO)
        40                         -0.2184527              -5.9444
        41                         -0.2164437              -5.8897
        42                         -0.2146311              -5.8404
        43                         -0.0901968              -2.4544
       ...                                ...                  ...
        76                          0.6706939              18.2505
      -------------------------------------------------------------
                  HL-Gap            0.1677728 Eh            4.5653 eV
             Fermi-level           -0.3032973 Eh           -8.2531 eV

 SCC (total)                   0 d,  0 h,  0 min,  0.021 sec
 SCC setup                      ...        0 min,  0.000 sec (  0.704%)
 Dispersion                     ...        0 min,  0.000 sec (  0.970%)
 classical contributions        ...        0 min,  0.000 sec (  0.180%)
 integral evaluation            ...        0 min,  0.003 sec ( 14.009%)
 iterations                     ...        0 min,  0.008 sec ( 37.798%)
 molecular gradient             ...        0 min,  0.010 sec ( 45.723%)
 printout                       ...        0 min,  0.000 sec (  0.546%)

         :::::::::::::::::::::::::::::::::::::::::::::::::::::
         ::                     SUMMARY                     ::
         :::::::::::::::::::::::::::::::::::::::::::::::::::::
         :: total energy             -40.256947806385 Eh    ::
         :: gradient norm              0.000907040179 Eh/a0 ::
         :: HOMO-LUMO gap              4.565330376816 eV    ::
         ::.................................................::
         :: SCC energy               -41.009203725882 Eh    ::
         :: -> isotropic ES            0.002949460355 Eh    ::
         :: -> anisotropic ES          0.006731017873 Eh    ::
         :: -> anisotropic XC          0.027051641326 Eh    ::
         :: -> dispersion             -0.028603961314 Eh    ::
         :: repulsion energy           0.752255919497 Eh    ::
         :: add. restraining           0.000000000000 Eh    ::
         :: total charge               0.000000000000 e     ::
         :::::::::::::::::::::::::::::::::::::::::::::::::::::


Property printout bound to 'properties.out'

           -------------------------------------------------
          | TOTAL ENERGY              -40.256947806385 Eh   |
          | GRADIENT NORM               0.000907040179 Eh/α |
          | HOMO-LUMO GAP               4.565330376816 eV   |
           -------------------------------------------------

------------------------------------------------------------------------
 * finished run on 2026/01/11 at 02:06:20.335     
------------------------------------------------------------------------
 total:
 * wall-time:     0 d,  0 h,  0 min,  0.031 sec
 *  cpu-time:     0 d,  0 h,  0 min,  0.025 sec
 * ratio c/w:     0.804 speedup
 SCF:
 * wall-time:     0 d,  0 h,  0 min,  0.021 sec
 *  cpu-time:     0 d,  0 h,  0 min,  0.017 sec
 * ratio c/w:     0.818 speedup


-------------------------   --------------------
FINAL SINGLE POINT ENERGY       -40.256947806390
-------------------------   --------------------


-------------
DIPOLE MOMENT
-------------
                                X             Y             Z
Total Dipole Moment    :      0.04100      -0.02200       0.17500
                        -----------------------------------------
Magnitude (a.u.)       :      0.18108
Magnitude (Debye)      :      0.46027

                                *** OPTIMIZATION RUN DONE ***

		     ------------------------------
			                   _   
			                  | |  
			  __ _  ___   __ _| |_ 
			 / _` |/ _ \ / _` | __|
			| (_| | (_) | (_| | |_ 
			 \__, |\___/ \__,_|\__|
			 __/ |                
			|___/                 

		      A Global Optimizer Algorithm
		     ------------------------------

Global parameters
-----------------
  GOAT version                               ... default
  Minimum global steps                       ... 3
  Number of base workers                     ... 4
  Split workers by                           ... 2
  Final number of workers                    ... 8
  Number of available CPUs                   ... 1
  Parameter list (worker : temperature)      ...  0 : 2903.97,  1 : 1451.98, 
                                                  2 :  725.99,  3 :  363.00, 
                                                  4 : 2903.97,  5 : 1451.98, 
                                                  6 :  725.99,  7 :  363.00 
  GradComp (mean : sigma)                    ... 1.00 : 0.50
  Number of fragments                        ... 1
  Number of atoms                            ... 31
  Flexibility parameter                      ... 0.25
  Optimizations per global step              ... 168
  Optimizations per worker                   ... 21

Filtering criteria
------------------
  RMSD                                       ... 0.125 Angs (atom. pos.)
  EnDiff                                     ... 0.100 kcal/mol
  RotConst                                   ... 1.00-2.50 %
  Maximum Conf. Energy                       ... 6.000 kcal/mol

Thermodynamics
--------------
  Ensemble temperature                       ... 298.15 K
  Degeneracy of conformers                   ... 1
  *No rotamers will be included in Gconf

------------------------------------------------------------------------------
   Iter  MinTemp     MaxEn       GradComp    NOpt   NProcs    Output
------------------------------------------------------------------------------
   0     2903.97     93.00    1.00 : 0.50      21        1    difenylopropan.goat.0.0.out
   1     1451.98     93.00    1.00 : 0.50      21        1    difenylopropan.goat.0.1.out
   2      725.99     93.00    1.00 : 0.50      21        1    difenylopropan.goat.0.2.out
   3      363.00     93.00    1.00 : 0.50      21        1    difenylopropan.goat.0.3.out
   4     2903.97     93.00    1.00 : 0.50      21        1    difenylopropan.goat.0.4.out
   5     1451.98     93.00    1.00 : 0.50      21        1    difenylopropan.goat.0.5.out
   6      725.99     93.00    1.00 : 0.50      21        1    difenylopropan.goat.0.6.out
   7      363.00     93.00    1.00 : 0.50      21        1    difenylopropan.goat.0.7.out

			     GOAT Global Iter 1
		Iter    Min En       Sconf       Gconf   
		        Hartree      cal/(molK)  kcal/mol
		=========================================

		   1    -40.261505   1.944       -0.224

   0     2903.97     93.00    1.00 : 0.50      21        1    difenylopropan.goat.1.0.out
   1     1451.98     93.00    1.00 : 0.50      21        1    difenylopropan.goat.1.1.out
   2      725.99     93.00    1.00 : 0.50      21        1    difenylopropan.goat.1.2.out
   3      363.00     93.00    1.00 : 0.50      21        1    difenylopropan.goat.1.3.out
   4     2903.97     93.00    1.00 : 0.50      21        1    difenylopropan.goat.1.4.out
   5     1451.98     93.00    1.00 : 0.50      21        1    difenylopropan.goat.1.5.out
   6      725.99     93.00    1.00 : 0.50      21        1    difenylopropan.goat.1.6.out
   7      363.00     93.00    1.00 : 0.50      21        1    difenylopropan.goat.1.7.out

			     GOAT Global Iter 2
		Iter    Min En       Sconf       Gconf   
		        Hartree      cal/(molK)  kcal/mol
		=========================================

		   1    -40.261505   1.944       -0.224
		   2    -40.261505   1.949       -0.224

   0     2903.97     93.00    1.00 : 0.50      21        1    difenylopropan.goat.2.0.out
   1     1451.98     93.00    1.00 : 0.50      21        1    difenylopropan.goat.2.1.out
   2      725.99     93.00    1.00 : 0.50      21        1    difenylopropan.goat.2.2.out
   3      363.00     93.00    1.00 : 0.50      21        1    difenylopropan.goat.2.3.out
   4     2903.97     93.00    1.00 : 0.50      21        1    difenylopropan.goat.2.4.out
   5     1451.98     93.00    1.00 : 0.50      21        1    difenylopropan.goat.2.5.out
   6      725.99     93.00    1.00 : 0.50      21        1    difenylopropan.goat.2.6.out
   7      363.00     93.00    1.00 : 0.50      21        1    difenylopropan.goat.2.7.out

			     GOAT Global Iter 3
		Iter    Min En       Sconf       Gconf   
		        Hartree      cal/(molK)  kcal/mol
		=========================================

		   1    -40.261505   1.944       -0.224
		   2    -40.261505   1.949       -0.224
		   3    -40.261505   2.496       -0.320

		Global minimum found!
		Writing structure to difenylopropan.globalminimum.xyz

		# Final ensemble info #
		Conformer     Energy     Degen.   % total   % cumul.  
		              (kcal/mol)
		------------------------------------------------------
		        0     0.000	     1      58.27      58.27
		        1     0.805	     1      14.97      73.24
		        2     0.807	     1      14.92      88.16
		        3     1.235	     1       7.25      95.41
		        4     1.682	     1       3.41      98.82
		        5     2.951	     1       0.40      99.22
		        6     2.952	     1       0.40      99.62
		        7     3.112	     1       0.31      99.93
		        8     4.161	     1       0.05      99.98
		        9     4.655	     1       0.02     100.00

		Conformers below 3 kcal/mol: 7
		Lowest energy conformer    : -40.261505 Eh
		Sconf at 298.15 K          :  2.50 cal/(molK)
		Gconf at 298.15 K          : -0.32 kcal/mol

		Writing final ensemble to difenylopropan.finalensemble.xyz

--------------------------------
SUGGESTED CITATIONS FOR THIS RUN
--------------------------------

Below you find a list of papers that are relevant to this ORCA run
We neither can nor want to force you to cite these papers, but we appreciate if you do
You receive ORCA, which is the product of decades of hard work by many enthusiastic individuals, for free
The only thing we kindly ask in return is that you cite our papers,
We deeply appreciate it, if you show your appreciation for ORCA by not just citing the generic ORCA reference.

Please note that relegating all ORCA citations to the supporting information does *not* help us.
SI sections are not indexed - citations you put there will not count into any citation statistics
But we need these citations in order to attract the funding resources that allow us to do what we are doing

Therefore, if you are a happy ORCA user, please consider citing a few of the papers listed below in the main body of your paper

In addition to the list printed below, the program has created the file difenylopropan.bibtex that contains the list in bibtex format
You can import this file easily into all common literature databanks and citation aid programs

It goes without saying that in many instances, there are alternative algorithms to achieve similar
results as the ones you have gotten from ORCA. It is, of course, also the case that in some instances
ORCA just re-implements algorithms worked out by others. We are fully aware of that and we are also
fully appreciative of our colleagues work. Hence this citation list should not be read as indicating
that the listed papers, which are focused on our own work, are the only ones worth citing. It simply
meant to make it easier for users to cite ORCA specific papers. It is not a substitute for doing your
own literature research and citing the relevant literature in a scientifically appropriate manner.

List of essential papers. We consider these as the minimum necessary citations

  1. Bannwarth, C.; Ehlert, S.; Grimme, S.
     GFN2-xTB—An Accurate and Broadly Parametrized Self-Consistent Tight-Binding Quantum Chemical Method with Multipole Electrostatics and Density-Dependent Dispersion Contributions
     J. Chem. Theory Comput. 2019 15(3), 1652-1671
     doi.org/10.1021/acs.jctc.8b01176
  2. Neese, F.
     Software update: the ORCA program system, version 6.0
     WIRES Comput. Molec. Sci. 2025 15(1), e70019
     doi.org/10.1002/wcms.70019
  3. de Souza, B.
     GOAT: A Global Optimization Algorithm for Molecules and Atomic Clusters
     Angewandte Chemie 2025 64(18), e202500393
     doi.org/10.1002/anie.202500393

List of papers to cite with high priority. The work reported in these papers was absolutely
necessary for this run to complete.
Our perspective: the developers of density functionals and basis sets usually get cited in chemistry papers
Good! But without the algorithms to do something with them, the functionals or basis sets would not do anything.
Hence, in our opinion, the algorithm design and method developments papers are equally worthy of getting cited

  1. Bannwarth, C.; Caldeweyher, E.; Ehlert, S.; Hansen, A.; Pracht, P.; Seibert, J.; Spicher, S.; Grimme, S.
     Extended tight-binding quantum chemistry methods
     WIRES Comput. Molec. Sci. 2020 11(2), e1493
     doi.org/10.1002/wcms.1493

List of suggested additional citations. These are papers that are important in the 'surrounding' of 
of this run, or papers that preceded the highly important papers. If you like your results we are grateful for a citation.

  1. Neese, F.
     The ORCA program system
     WIRES Comput. Molec. Sci. 2012 2(1), 73-78
     doi.org/10.1002/wcms.81
  2. Neese, F.
     Software update: the ORCA program system, version 4.0
     WIRES Comput. Molec. Sci. 2018 8(1), 1-6
     doi.org/10.1002/wcms.1327
  3. Neese, F.; Wennmohs, F.; Becker, U.; Riplinger, C.
     The ORCA quantum chemistry program package
     J. Chem. Phys. 2020 152(22), 224108
     doi.org/10.1063/5.0004608
  4. Neese, F.
     Software update: The ORCA program system—Version 5.0
     WIRES Comput. Molec. Sci. 2022 12(1), e1606
     doi.org/10.1002/wcms.1606

List of optional additional citations

  1. Neese, F.
     Approximate second-order SCF convergence for spin unrestricted wavefunctions
     Chem. Phys. Lett. 2000 325(1-3), 93-98
     doi.org/10.1016/s0009-2614(00)00662-x

Timings for individual modules:

Sum of individual times          ...      592.565 sec (=   9.876 min)
Geometry relaxation              ...        0.220 sec (=   0.004 min)   0.0 %
GOAT                             ...      591.340 sec (=   9.856 min)  99.8 %
XTB module                       ...        1.004 sec (=   0.017 min)   0.2 %
                             ****ORCA TERMINATED NORMALLY****
TOTAL RUN TIME: 0 days 0 hours 9 minutes 52 seconds 745 msec
