
                                 *****************
                                 * O   R   C   A *
                                 *****************

                                            #,                                       
                                            ###                                      
                                            ####                                     
                                            #####                                    
                                            ######                                   
                                           ########,                                 
                                     ,,################,,,,,                         
                               ,,#################################,,                 
                          ,,##########################################,,             
                       ,#########################################, ''#####,          
                    ,#############################################,,   '####,        
                  ,##################################################,,,,####,       
                ,###########''''           ''''###############################       
              ,#####''   ,,,,##########,,,,          '''####'''          '####       
            ,##' ,,,,###########################,,,                        '##       
           ' ,,###''''                  '''############,,,                           
         ,,##''                                '''############,,,,        ,,,,,,###''
      ,#''                                            '''#######################'''  
     '                                                          ''''####''''         
             ,#######,   #######,   ,#######,      ##                                
            ,#'     '#,  ##    ##  ,#'     '#,    #''#        ,####,    ,#,          
            ##       ##  ##   ,#'  ##            #'  '#       #'       ,# #          
            ##       ##  #######   ##           ,######,      #####,      #          
            '#,     ,#'  ##    ##  '#,     ,#' ,#      #,     #,   #      #          
             '#######'   ##     ##  '#######'  #'      '#     '####' #    #          



                #########################################################
                #                        -***-                          #
                #          Department of theory and spectroscopy        #
                #                                                       #
                #                      Frank Neese                      #
                #                                                       #
                #     Directorship, Architecture, Infrastructure        #
                #                    SHARK, DRIVERS                     #
                #        Core code/Algorithms in most modules           #
                #                                                       #
                #        Max Planck Institute fuer Kohlenforschung      #
                #                Kaiser Wilhelm Platz 1                 #
                #                 D-45470 Muelheim/Ruhr                 #
                #                      Germany                          #
                #                                                       #
                #                  All rights reserved                  #
                #                        -***-                          #
                #########################################################


                         Program Version 6.1.1  -  RELEASE   -
                                (GIT: $487d211c$)
                          ($2025-11-21 10:33:24 +0100$)


 With contributions from (in alphabetic order):
[Max-Planck-Institut fuer Kohlenforschung]                               
  Daniel Aravena         : Magnetic Suceptibility                        
  Michael Atanasov       : Ab Initio Ligand Field Theory (pilot matlab implementation)
  Alexander A. Auer      : GIAO ZORA, VPT2 properties, NMR spectrum      
  Ute Becker             : All parallelization in ORCA, NUMFREQ, NUMCALC 
  Giovanni Bistoni       : ED, misc. LED, open-shell LED, HFLD           
  Dmytro Bykov           : pre 5.0 version of the SCF Hessian            
  Marcos Casanova-Páez   : Triplet and SCS-CIS(D). UHF-(DLPNO)-IP/EA/STEOM-CCSD. UHF-CVS-IP/STEOM-CCSD   
  Vijay G. Chilkuri      : MRCI spin determinant printing, contributions to CSF-ICE 
  Pauline Colinet        : FMM embedding                                 
  Dipayan Datta          : RHF DLPNO-CCSD density                        
  Achintya Kumar Dutta   : EOM-CC, STEOM-CC                              
  Nicolas Foglia         : Exact transition moments, OPA infrastructure, MCD improvements    
  Dmitry Ganyushin       : Spin-Orbit,Spin-Spin,Magnetic field MRCI      
  Miquel Garcia-Rates    : C-PCM and meta-GGA Hessian, CCSD/C-PCM, Gaussian charge scheme 
  Tiago L. C. Gouveia    : GS-ROHF, GS-ROCIS                             
  Yang Guo               : DLPNO-NEVPT2, F12-NEVPT2, CIM, IAO-localization        
  Andreas Hansen         : Spin unrestricted coupled pair/coupled cluster methods 
  Ingolf Harden          : AUTO-CI MPn and infrastructure                
  Benjamin Helmich-Paris : MC-RPA, TRAH-(SCF,CASSCF), AVAS, COSX integrals, SCF dyn. polar., MC-PDFT, srDFT 
  Lee Huntington         : MR-EOM, pCC                                   
  Robert Izsak           : Overlap fitted RIJCOSX, COSX-SCS-MP3, EOM     
  Riya Kayal             : Wick's Theorem for AUTO-CI, AUTO-CI UHF-CCSDT 
  Emily Kempfer          : AUTO-CI RHF CISDT and CCSDT, approximate NEVPT4
  Christian Kollmar      : KDIIS, OOCD, Brueckner-CCSD(T), CCSD density, CASPT2, CASPT2-K, improved NEVPT2 
  Axel Koslowski         : Symmetry handling                             
  Simone Kossmann        : meta-GGA functionals, TD-DFT gradient, OOMP2, (MP2 Hessian; deprecated post 5.0) 
  Lucas Lang             : DCDCAS, Hyperfine gauge corrections, ICE-SOC+SSC
  Marvin Lechner         : AUTO-CI (C++ implementation), FIC-MRCC        
  Spencer Leger          : CASSCF response                               
  Dagmar Lenk            : GEPOL surface, SMD, ORCA-2-JSON               
  Dimitrios Liakos       : Extrapolation schemes; Compound Job, Property file
  Dimitrios Manganas     : Further ROCIS development; embedding schemes. LFT, Crystal Embedding 
  Dimitrios Pantazis     : SARC Basis sets                               
  Anastasios Papadopoulos: AUTO-CI, single reference methods and gradients 
  Taras Petrenko         : pre 6.0 DFT Hessian and TD-DFT gradient,  ECA, NRVS 
  Petra Pikulova         : Analytic Raman intensities                    
  Peter Pinski           : DLPNO-MP2, DLPNO-MP2 Gradient                 
  Shashank Vittal Rao    : ES-AILFT, MagRelax                            
  Christoph Reimann      : Effective Core Potentials                     
  Marius Retegan         : Local ZFS, SOC                                
  Christoph Riplinger    : Optimizer, TS searches, QM/MM, DLPNO-CCSD(T), (RO)-DLPNO pert. Triples 
  Michael Roemelt        : Original ROCIS implementation, recursive CI coupling coefficients
  Masaaki Saitow         : Open-shell DLPNO-CCSD energy and density      
  Barbara Sandhoefer     : DKH picture change effects                    
  Yorick L. A. Schmerwitz: GMF and freeze-and-release deltaSCF, NEB S-IDPP initial path                    
  Kantharuban Sivalingam : CASSCF convergence/infrastructure, NEVPT2, NEVPT3, NEVPT4(SD), FIC-MRCI and CEPA variants
  Bernardo de Souza      : ESD, SOC TD-DFT                               
  Georgi L. Stoychev     : AutoAux, RI-MP2 NMR, DLPNO-MP2 response, X2C  
  Van Anh Tran           : RI-MP2 g-tensors                              
  Willem Van den Heuvel  : Paramagnetic NMR                              
  Zikuan Wang            : NOTCH, Electric field optimization            
  Frank Wennmohs         : Technical directorship and infrastructure     
  Hang Xu                : AUTO-CI-Response properties                   
                                                                         
[FACCTs GmbH]                                                            
  Markus Bursch, Nicolas Foglia, Miquel Garcia-Rates, Ingolf Harden, Hagen Neugebauer, Anastasios Papadopoulos, 
  Christoph Riplinger, Bernardo de Souza, Georgi L. Stoychev                                                    
                                                                 
  APM, various basis sets, CI-OPT, improved COSX, DLPNO-Multilevel,           
  DOCKER, DRACO, updates on ESD, Fragmentator, GOAT, IRC, LR-CPCM, L-BFGS, MBIS, meta-GGA TD-DFT gradient, ML-optimized integration grids, 
  MM, NACMEs, nearIR, NEB, NEB-TS, NL-DFT gradient (VV10), 2- and 3-layer-ONIOM, interface openCOSMO-RS, QMMM,   
  Crystal-QMMM, RESP, rigid body optimization, SF, symmetry and pop. for TD-DFT, various functionals, SOLVATOR                                   
                                                                         
[Other institutions]                                                     
  V. Asgeirsson          : NEB                                           
  Christoph Bannwarth    : sTDA-DFT, sTD-DFT, PBEh-3c, B97-3c, D3        
  Giovanni Bistoni       : ETS/NOCV, ADLD/ADEX, COVALED                  
  Martin Brehm           : Molecular dynamics                            
  Ronald Cardenas        : ETS/NOCV                                      
  Martina Colucci        : COVALED                                       
  Sebastian Ehlert       : rSCAN, r2SCAN, r2SCAN-3c, D4, dhf basis sets  
  Marvin Friede          : D4 for Fr, Ra, Ac-Lr                          
  Lars Goerigk           : TD-DFT with DH, B97 family of functionals     
  Stefan Grimme          : VdW corrections, initial TS optimization, DFT functionals, gCP, sTDA/sTD-DF 
  Waldemar Hujo          : DFT-NL                                        
  H. Jonsson             : NEB                                           
  Holger Kruse           : gCP                                           
  Marcel Mueller         : wB97X-3c, vDZP basis set                      
  Hagen Neugebauer       : wr2SCAN, Native XTB                           
  Gianluca Regni         : ADLD/ADEX                                     
  Tobias Risthaus        : pre 6.0 range-separated hybrid DFT and stability analysis
  Lukas Wittmann         : regularized MP2, r2SCAN double-hybrids, wr2SCAN        
                                                                         
We gratefully acknowledge several colleagues who have allowed us to      
interface, adapt or use parts of their codes:                            
  Ed Valeev, F. Pavosevic, A. Kumar             : LibInt (2-el integral package), F12 methods 
  Garnet Chan, S. Sharma, J. Yang, R. Olivares  : DMRG                   
  Ulf Ekstrom                                   : XCFun DFT Library      
  Mihaly Kallay                                 : mrcc  (arbitrary order and MRCC methods)
  Frank Weinhold                                : gennbo (NPA and NBO analysis)           
  Simon Mueller                                 : openCOSMO-RS                            
  Christopher J. Cramer and Donald G. Truhlar   : smd solvation model                     
  S Lehtola, MJT Oliveira, MAL Marques          : LibXC Library                           
  Liviu Ungur et al                             : ANISO software                          


 Your calculation uses the libint2 library for the computation of 2-el integrals
 For citations please refer to: http://libint.valeyev.net

 Your ORCA version has been built with support for libXC version: 7.0.0
 For citations please refer to: https://libxc.gitlab.io

 This ORCA versions uses:
   CBLAS   interface :  Fast vector & matrix operations
   LAPACKE interface :  Fast linear algebra routines
   SCALAPACK package :  Parallel linear algebra routines
   Shared memory     :  Shared parallel matrices
   BLAS/LAPACK       :  OpenBLAS 0.3.29  USE64BITINT DYNAMIC_ARCH NO_AFFINITY Haswell SINGLE_THREADED
        Core in use  :  Haswell
   Copyright (c) 2011-2014, The OpenBLAS Project


  ***********************************
  * Starting time: Sun Jan 11 02:31:21 2026
  * Host name:     Maks
  * Process ID:    63292
  * Working dir.:  /home/maksy/Chemia_obliczeniowa/Cwiczenia4
  ***********************************

Your calculation utilizes the atom-pairwise dispersion correction
with the Becke-Johnson damping scheme (D3BJ)


Warning: RI is on but no J-basis has been assigned. Assigning Def2/J (nothing to worry about!)
================================================================================

----- Orbital basis set information -----
Your calculation utilizes the basis: def2-SVP
   F. Weigend and R. Ahlrichs, Phys. Chem. Chem. Phys. 7, 3297 (2005).

----- AuxJ basis set information -----
Your calculation utilizes the auxiliary basis: def2/J
   H-Rn: F. Weigend, Phys. Chem. Chem. Phys. 8, 1057 (2006).
   Fr-Lr: K. Eichkorn, F. Weigend, O. Treutler, R. Ahlrichs; Theor. Chem. Acc. 97, 119 (1997).

================================================================================
                                        WARNINGS
                       Please study these warnings very carefully!
================================================================================


WARNING: Geometry Optimization
  ===> : Switching off AutoStart
         For restart on a previous wavefunction, please use MOREAD

================================================================================
                                       INPUT FILE
================================================================================
NAME = global_minimum_d3bj.inp
|  1> ! B3LYP D3BJ def2-SVP Opt
|  2> * xyz 0 1
|  3> C  0.96928397388859999229 0.78366125216764970229 -0.02856579812346182398
|  4> C  0.84401277979688649200 -0.49252191639157610892 -0.54404059179875752239
|  5> C  0.24080302050856047802 -0.68792535830337564473 -1.77449202628633018186
|  6> C  -0.24703426832387070933 0.39961427004940974772 -2.47606937508953484084
|  7> C  -0.11912984220001242297 1.67539102069441292464 -1.95706919358471487236
|  8> C  0.50364866031306432248 1.88615239857697725157 -0.73529912339973124702
|  9> C  0.67456302670261081289 3.27044030335282931432 -0.17434971053359385462
| 10> C  2.14530540237479661059 3.69224714225499672793 -0.06434715814740751827
| 11> C  2.78813481515923466958 4.02342115977868886034 -1.41559031749543939860
| 12> C  2.82494679971950501951 2.86358104211185260368 -2.37145278164414818889
| 13> C  3.47102190796641663084 1.68101449921045054126 -2.03259977030331429049
| 14> C  3.48744548166482548623 0.60917017011227270196 -2.90462860357782348686
| 15> C  2.87151542560021733053 0.70772138815642549048 -4.14026098050057456135
| 16> C  2.24760033414452298217 1.88856872563985578317 -4.49946802200832873808
| 17> C  2.22524577294157355212 2.95613527885150251251 -3.61993672529373577973
| 18> H  1.43451719444580372276 0.92671617111305482073 0.93699066466467784142
| 19> H  1.21687996688484822982 -1.33819648954235392857 0.01596892035192797391
| 20> H  0.14691012624339469528 -1.68404525771070301410 -2.18137375288433776888
| 21> H  -0.72689200480462590193 0.25526184265065338108 -3.43312318456233622754
| 22> H  -0.50290082028162408356 2.51911253188832828798 -2.51275457527232948252
| 23> H  0.13828288977567301798 3.99020604047450033747 -0.79607837336084730229
| 24> H  0.23500351147136688823 3.29992404904189751136 0.82721357367159731311
| 25> H  2.20736225551763087793 4.58225959774445446016 0.56737590199067922114
| 26> H  2.71069617986041322411 2.89881955715118699857 0.42587920788570865493
| 27> H  2.24439513000934764975 4.85226143622985350845 -1.87479343292132183407
| 28> H  3.81267753628816574718 4.36203893515375895618 -1.23066858722450889196
| 29> H  3.96397178417518647464 1.59549279593283155343 -1.07490047053018256129
| 30> H  3.98403929391941424853 -0.30713093191662166337 -2.62001701368953909821
| 31> H  2.88233769488588054131 -0.13086431961942024405 -4.82084814738359135333
| 32> H  1.77248893032726040353 1.97796316575260511250 -5.46586478508405448906
| 33> H  1.73116104102494317019 3.87433149939358267844 -3.90695576786457987595
| 34> *
| 35> 
| 36>                          ****END OF INPUT****
================================================================================

                       *****************************
                       * Geometry Optimization Run *
                       *****************************

Geometry optimization settings:
Update method            Update   .... BFGS
Choice of coordinates    CoordSys .... (2022) Redundant Internals
Initial Hessian          InHess   .... Almloef's Model
Max. no of cycles        MaxIter  .... 93

Convergence Tolerances:
Energy Change            TolE     ....  5.0000e-06 Eh
Max. Gradient            TolMAXG  ....  3.0000e-04 Eh/bohr
RMS Gradient             TolRMSG  ....  1.0000e-04 Eh/bohr
Max. Displacement        TolMAXD  ....  4.0000e-03 bohr
RMS Displacement         TolRMSD  ....  2.0000e-03 bohr
Strict Convergence                .... False

------------------------------------------------------------------------------
                        ORCA OPTIMIZATION COORDINATE SETUP
------------------------------------------------------------------------------

The optimization will be done in redundant internal coordinates (2022)
Making redundant internal coordinates   ...  (2022 redundants) done
Evaluating the initial hessian          ...  (Almloef) done
Evaluating the coordinates              ...  done
Calculating the B-matrix                .... done
Calculating the G-matrix                .... done
The number of degrees of freedom        ....  157

    -----------------------------------------------------------------
                    Redundant Internal Coordinates


    -----------------------------------------------------------------
         Definition                    Initial Value    Approx d2E/dq
    -----------------------------------------------------------------
      1. B(C   1,C   0)                  1.3820         0.643323   
      2. B(C   2,C   1)                  1.3842         0.638213   
      3. B(C   3,C   2)                  1.3831         0.640859   
      4. B(C   4,C   3)                  1.3832         0.640529   
      5. B(C   5,C   4)                  1.3874         0.630695   
      6. B(C   5,C   0)                  1.3899         0.625065   
      7. B(C   6,C   5)                  1.5034         0.411965   
      8. B(C   7,C   6)                  1.5340         0.368148   
      9. B(C   8,C   7)                  1.5326         0.370067   
     10. B(C   9,C   8)                  1.5034         0.411900   
     11. B(C  10,C   9)                  1.3895         0.625955   
     12. B(C  11,C  10)                  1.3819         0.643747   
     13. B(C  12,C  11)                  1.3841         0.638371   
     14. B(C  13,C  12)                  1.3830         0.641062   
     15. B(C  14,C   9)                  1.3881         0.629091   
     16. B(C  14,C  13)                  1.3834         0.640149   
     17. B(H  15,C   0)                  1.0813         0.371797   
     18. B(H  16,C   1)                  1.0807         0.372683   
     19. B(H  17,C   2)                  1.0801         0.373433   
     20. B(H  18,C   3)                  1.0803         0.373160   
     21. B(H  19,C   4)                  1.0807         0.372603   
     22. B(H  20,C   6)                  1.0919         0.357619   
     23. B(H  21,C   6)                  1.0942         0.354624   
     24. B(H  22,C   7)                  1.0932         0.355915   
     25. B(H  23,C   7)                  1.0906         0.359242   
     26. B(H  24,C   8)                  1.0925         0.356844   
     27. B(H  25,C   8)                  1.0948         0.353830   
     28. B(H  26,C  10)                  1.0805         0.372876   
     29. B(H  27,C  11)                  1.0804         0.373056   
     30. B(H  28,C  12)                  1.0801         0.373485   
     31. B(H  28,H  18)                  3.8861         0.010000   
     32. B(H  29,C  13)                  1.0806         0.372785   
     33. B(H  30,C  14)                  1.0815         0.371559   
     34. A(C   1,C   0,C   5)          120.8268         0.437604   
     35. A(C   5,C   0,H  15)          119.5548         0.355315   
     36. A(C   1,C   0,H  15)          119.6183         0.357056   
     37. A(C   2,C   1,H  16)          120.0357         0.356717   
     38. A(C   0,C   1,H  16)          119.8717         0.357201   
     39. A(C   0,C   1,C   2)          120.0926         0.439250   
     40. A(C   3,C   2,H  17)          120.2268         0.357090   
     41. A(C   1,C   2,C   3)          119.5782         0.438946   
     42. A(C   1,C   2,H  17)          120.1941         0.356839   
     43. A(C   2,C   3,H  18)          120.0652         0.357046   
     44. A(C   2,C   3,C   4)          120.1514         0.439233   
     45. A(C   4,C   3,H  18)          119.7831         0.357014   
     46. A(C   3,C   4,H  19)          119.6236         0.356924   
     47. A(C   3,C   4,C   5)          120.7983         0.437968   
     48. A(C   5,C   4,H  19)          119.5768         0.355987   
     49. A(C   0,C   5,C   4)          118.5320         0.436043   
     50. A(C   4,C   5,C   6)          121.2972         0.404792   
     51. A(C   0,C   5,C   6)          120.1706         0.404152   
     52. A(C   7,C   6,H  20)          109.2975         0.323174   
     53. A(C   5,C   6,H  20)          109.7965         0.329211   
     54. A(C   5,C   6,C   7)          112.8893         0.368566   
     55. A(H  20,C   6,H  21)          107.8270         0.289826   
     56. A(C   7,C   6,H  21)          108.1868         0.322729   
     57. A(C   5,C   6,H  21)          108.7045         0.328754   
     58. A(C   6,C   7,C   8)          113.4749         0.361861   
     59. A(H  22,C   7,H  23)          107.6443         0.290197   
     60. A(C   8,C   7,H  23)          109.6372         0.323690   
     61. A(C   6,C   7,H  23)          109.2214         0.323414   
     62. A(C   8,C   7,H  22)          108.0450         0.323196   
     63. A(C   6,C   7,H  22)          108.6470         0.322921   
     64. A(C   7,C   8,C   9)          113.8368         0.368885   
     65. A(H  24,C   8,H  25)          107.5850         0.289626   
     66. A(C   7,C   8,H  25)          108.0861         0.322885   
     67. A(C   9,C   8,H  24)          109.2835         0.329084   
     68. A(C   7,C   8,H  24)          109.0130         0.323335   
     69. A(C   9,C   8,H  25)          108.8502         0.328624   
     70. A(C   8,C   9,C  10)          120.8582         0.404242   
     71. A(C  10,C   9,C  14)          118.4868         0.435955   
     72. A(C   8,C   9,C  14)          120.6515         0.404599   
     73. A(C   9,C  10,C  11)          120.7818         0.437768   
     74. A(C  11,C  10,H  26)          119.5058         0.357272   
     75. A(C   9,C  10,H  26)          119.7120         0.355576   
     76. A(C  10,C  11,C  12)          120.1871         0.439322   
     77. A(C  12,C  11,H  27)          120.0063         0.356793   
     78. A(C  10,C  11,H  27)          119.8065         0.357302   
     79. A(C  11,C  12,C  13)          119.5644         0.438990   
     80. A(C  13,C  12,H  28)          120.2508         0.357118   
     81. A(C  11,C  12,H  28)          120.1843         0.356862   
     82. A(C  14,C  13,H  29)          119.8448         0.356917   
     83. A(C  12,C  13,H  29)          120.0844         0.357004   
     84. A(C  12,C  13,C  14)          120.0702         0.439211   
     85. A(C  13,C  14,H  30)          119.5935         0.356718   
     86. A(C   9,C  14,H  30)          119.5168         0.355664   
     87. A(C   9,C  14,C  13)          120.8894         0.437720   
     88. D(C   2,C   1,C   0,C   5)     -0.4449         0.028775   
     89. D(H  16,C   1,C   0,C   5)    179.6305         0.028775   
     90. D(H  16,C   1,C   0,H  15)     -0.4231         0.028775   
     91. D(C   2,C   1,C   0,H  15)    179.5014         0.028775   
     92. D(C   3,C   2,C   1,H  16)    179.2489         0.028289   
     93. D(C   3,C   2,C   1,C   0)     -0.6755         0.028289   
     94. D(H  17,C   2,C   1,H  16)     -0.4126         0.028289   
     95. D(H  17,C   2,C   1,C   0)    179.6630         0.028289   
     96. D(H  18,C   3,C   2,H  17)      0.1913         0.028540   
     97. D(H  18,C   3,C   2,C   1)   -179.4700         0.028540   
     98. D(C   4,C   3,C   2,H  17)   -179.6298         0.028540   
     99. D(C   4,C   3,C   2,C   1)      0.7089         0.028540   
    100. D(H  19,C   4,C   3,C   2)    179.9654         0.028509   
    101. D(C   5,C   4,C   3,H  18)   -179.4426         0.028509   
    102. D(C   5,C   4,C   3,C   2)      0.3791         0.028509   
    103. D(H  19,C   4,C   3,H  18)      0.1438         0.028509   
    104. D(C   6,C   5,C   4,H  19)     -0.8922         0.027584   
    105. D(C   6,C   5,C   4,C   3)    178.6944         0.027584   
    106. D(C   0,C   5,C   4,C   3)     -1.4710         0.027584   
    107. D(C   6,C   5,C   0,H  15)      1.3948         0.027063   
    108. D(C   0,C   5,C   4,H  19)    178.9424         0.027584   
    109. D(C   6,C   5,C   0,C   1)   -178.6588         0.027063   
    110. D(C   4,C   5,C   0,H  15)   -178.4417         0.027063   
    111. D(C   4,C   5,C   0,C   1)      1.5047         0.027063   
    112. D(H  21,C   6,C   5,C   0)    -54.9171         0.012565   
    113. D(H  20,C   6,C   5,C   4)      7.1797         0.012565   
    114. D(H  20,C   6,C   5,C   0)   -172.6522         0.012565   
    115. D(C   7,C   6,C   5,C   4)   -115.0437         0.012565   
    116. D(C   7,C   6,C   5,C   0)     65.1244         0.012565   
    117. D(C   8,C   7,C   6,H  20)    -48.8096         0.010841   
    118. D(C   8,C   7,C   6,C   5)     73.6934         0.010841   
    119. D(H  22,C   7,C   6,H  21)    -45.7712         0.010841   
    120. D(H  22,C   7,C   6,H  20)     71.3876         0.010841   
    121. D(H  22,C   7,C   6,C   5)   -166.1094         0.010841   
    122. D(C   8,C   7,C   6,H  21)   -165.9683         0.010841   
    123. D(H  24,C   8,C   7,H  23)   -177.1960         0.010948   
    124. D(H  24,C   8,C   7,H  22)    -60.1492         0.010948   
    125. D(H  24,C   8,C   7,C   6)     60.3886         0.010948   
    126. D(C   9,C   8,C   7,H  23)     60.5201         0.010948   
    127. D(C   9,C   8,C   7,H  22)    177.5668         0.010948   
    128. D(C   9,C   8,C   7,C   6)    -61.8953         0.010948   
    129. D(C  14,C   9,C   8,H  24)      0.1366         0.012562   
    130. D(C  14,C   9,C   8,C   7)    122.2714         0.012562   
    131. D(C  10,C   9,C   8,H  25)     62.2062         0.012562   
    132. D(C  10,C   9,C   8,H  24)    179.4428         0.012562   
    133. D(C  10,C   9,C   8,C   7)    -58.4223         0.012562   
    134. D(H  26,C  10,C   9,C  14)    178.6020         0.027145   
    135. D(H  26,C  10,C   9,C   8)     -0.7190         0.027145   
    136. D(C  11,C  10,C   9,C  14)     -1.6154         0.027145   
    137. D(C  11,C  10,C   9,C   8)    179.0637         0.027145   
    138. D(H  27,C  11,C  10,H  26)      0.5403         0.028816   
    139. D(H  27,C  11,C  10,C   9)   -179.2427         0.028816   
    140. D(C  12,C  11,C  10,H  26)   -179.3789         0.028816   
    141. D(C  12,C  11,C  10,C   9)      0.8381         0.028816   
    142. D(H  28,C  12,C  11,H  27)      0.2279         0.028304   
    143. D(H  28,C  12,C  11,C  10)   -179.8531         0.028304   
    144. D(C  13,C  12,C  11,H  27)   -179.4918         0.028304   
    145. D(C  13,C  12,C  11,C  10)      0.4273         0.028304   
    146. D(H  29,C  13,C  12,H  28)     -0.3150         0.028559   
    147. D(H  29,C  13,C  12,C  11)    179.4044         0.028559   
    148. D(C  14,C  13,C  12,H  28)    179.4004         0.028559   
    149. D(C  14,C  13,C  12,C  11)     -0.8802         0.028559   
    150. D(C  13,C  14,C   9,C   8)   -179.5185         0.027435   
    151. D(H  30,C  14,C  13,H  29)      0.0027         0.028473   
    152. D(H  30,C  14,C  13,C  12)   -179.7134         0.028473   
    153. D(C   9,C  14,C  13,H  29)    179.7934         0.028473   
    154. D(C   9,C  14,C  13,C  12)      0.0773         0.028473   
    155. D(H  30,C  14,C   9,C  10)   -179.0500         0.027435   
    156. D(H  30,C  14,C   9,C   8)      0.2724         0.027435   
    157. D(C  13,C  14,C   9,C  10)      1.1591         0.027435   
    -----------------------------------------------------------------

Number of atoms                         .... 31
Number of degrees of freedom            .... 157


         *************************************************************
         *                GEOMETRY OPTIMIZATION CYCLE   1            *
         *************************************************************
---------------------------------
CARTESIAN COORDINATES (ANGSTROEM)
---------------------------------
  C      0.969284    0.783661   -0.028566
  C      0.844013   -0.492522   -0.544041
  C      0.240803   -0.687925   -1.774492
  C     -0.247034    0.399614   -2.476069
  C     -0.119130    1.675391   -1.957069
  C      0.503649    1.886152   -0.735299
  C      0.674563    3.270440   -0.174350
  C      2.145305    3.692247   -0.064347
  C      2.788135    4.023421   -1.415590
  C      2.824947    2.863581   -2.371453
  C      3.471022    1.681014   -2.032600
  C      3.487445    0.609170   -2.904629
  C      2.871515    0.707721   -4.140261
  C      2.247600    1.888569   -4.499468
  C      2.225246    2.956135   -3.619937
  H      1.434517    0.926716    0.936991
  H      1.216880   -1.338196    0.015969
  H      0.146910   -1.684045   -2.181374
  H     -0.726892    0.255262   -3.433123
  H     -0.502901    2.519113   -2.512755
  H      0.138283    3.990206   -0.796078
  H      0.235004    3.299924    0.827214
  H      2.207362    4.582260    0.567376
  H      2.710696    2.898820    0.425879
  H      2.244395    4.852261   -1.874793
  H      3.812678    4.362039   -1.230669
  H      3.963972    1.595493   -1.074900
  H      3.984039   -0.307131   -2.620017
  H      2.882338   -0.130864   -4.820848
  H      1.772489    1.977963   -5.465865
  H      1.731161    3.874331   -3.906956

----------------------------
CARTESIAN COORDINATES (A.U.)
----------------------------
  NO LB      ZA    FRAG     MASS         X           Y           Z
   0 C     6.0000    0    12.011    1.831681    1.480905   -0.053982
   1 C     6.0000    0    12.011    1.594953   -0.930732   -1.028088
   2 C     6.0000    0    12.011    0.455052   -1.299991   -3.353304
   3 C     6.0000    0    12.011   -0.466827    0.755162   -4.679093
   4 C     6.0000    0    12.011   -0.225123    3.166030   -3.698325
   5 C     6.0000    0    12.011    0.951758    3.564311   -1.389514
   6 C     6.0000    0    12.011    1.274739    6.180237   -0.329473
   7 C     6.0000    0    12.011    4.054040    6.977336   -0.121599
   8 C     6.0000    0    12.011    5.268811    7.603164   -2.675078
   9 C     6.0000    0    12.011    5.338376    5.411384   -4.481396
  10 C     6.0000    0    12.011    6.559281    3.176657   -3.841057
  11 C     6.0000    0    12.011    6.590317    1.151165   -5.488953
  12 C     6.0000    0    12.011    5.426378    1.337400   -7.823959
  13 C     6.0000    0    12.011    4.247349    3.568878   -8.502762
  14 C     6.0000    0    12.011    4.205105    5.586286   -6.840689
  15 H     1.0000    0     1.008    2.710845    1.751240    1.770656
  16 H     1.0000    0     1.008    2.299570   -2.528825    0.030177
  17 H     1.0000    0     1.008    0.277620   -3.182384   -4.122199
  18 H     1.0000    0     1.008   -1.373627    0.482375   -6.487663
  19 H     1.0000    0     1.008   -0.950345    4.760433   -4.748418
  20 H     1.0000    0     1.008    0.261317    7.540397   -1.504370
  21 H     1.0000    0     1.008    0.444092    6.235953    1.563207
  22 H     1.0000    0     1.008    4.171310    8.659216    1.072185
  23 H     1.0000    0     1.008    5.122473    5.477975    0.804795
  24 H     1.0000    0     1.008    4.241292    9.169445   -3.542846
  25 H     1.0000    0     1.008    7.204916    8.243059   -2.325627
  26 H     1.0000    0     1.008    7.490821    3.015044   -2.031268
  27 H     1.0000    0     1.008    7.528743   -0.580393   -4.951115
  28 H     1.0000    0     1.008    5.446829   -0.247298   -9.110083
  29 H     1.0000    0     1.008    3.349519    3.737809  -10.328988
  30 H     1.0000    0     1.008    3.271420    7.321425   -7.383076

--------------------------------
INTERNAL COORDINATES (ANGSTROEM)
--------------------------------
 C      0   0   0     0.000000000000     0.00000000     0.00000000
 C      1   0   0     1.382045807742     0.00000000     0.00000000
 C      2   1   0     1.384216475644   120.09261569     0.00000000
 C      3   2   1     1.383090177814   119.57818917   359.32446050
 C      4   3   2     1.383230656149   120.15144844     0.70885332
 C      5   4   3     1.387442080232   120.79830312     0.37907022
 C      6   5   4     1.503372531258   121.29718639   178.69437363
 C      7   6   5     1.533983281028   112.88925072   244.95629164
 C      8   7   6     1.532567766694   113.47489500    73.69344896
 C      9   8   7     1.503415202506   113.83682073   298.10470006
 C     10   9   8     1.389495605312   120.85821946   301.57765262
 C     11  10   9     1.381866232909   120.78181583   179.06367074
 C     12  11  10     1.384149394914   120.18713483     0.83806910
 C     13  12  11     1.383004039928   119.56436942     0.42728447
 C     14  13  12     1.383391981270   120.07016266   359.11979412
 H      1   2   3     1.081298266981   119.61834724   179.50142988
 H      2   1   3     1.080650765317   119.87165945   180.07545482
 H      3   2   1     1.080103452929   120.19410113   179.66300648
 H      4   3   2     1.080302302498   120.06524571   180.52999564
 H      5   4   3     1.080709209496   119.62356565   179.96541207
 H      7   6   5     1.091881693123   109.79653976     7.17971443
 H      7   6   5     1.094171317006   108.70448201   124.91486556
 H      8   7   6     1.093182166274   108.64701152   193.89058560
 H      8   7   6     1.090649326788   109.22142609   311.04815390
 H      9   8   7     1.092472677137   109.01297860    60.38861238
 H      9   8   7     1.094781179754   108.08607118   177.04868966
 H     11  10   9     1.080509829188   119.71201237   359.28104425
 H     12  11  10     1.080378119478   119.80650764   180.75726730
 H     13  12  11     1.080065739909   120.18426915   180.14688674
 H     14  13  12     1.080576196130   120.08442684   179.40439014
 H     15  14  13     1.081473047528   119.59345517   180.28660175

---------------------------
INTERNAL COORDINATES (A.U.)
---------------------------
 C      0   0   0     0.000000000000     0.00000000     0.00000000
 C      1   0   0     2.611688081167     0.00000000     0.00000000
 C      2   1   0     2.615790049029   120.09261569     0.00000000
 C      3   2   1     2.613661654586   119.57818917   359.32446050
 C      4   3   2     2.613927120166   120.15144844     0.70885332
 C      5   4   3     2.621885558317   120.79830312     0.37907022
 C      6   5   4     2.840962361338   121.29718639   178.69437363
 C      7   6   5     2.898808295157   112.88925072   244.95629164
 C      8   7   6     2.896133360726   113.47489500    73.69344896
 C      9   8   7     2.841042998309   113.83682073   298.10470006
 C     10   9   8     2.625766158326   120.85821946   301.57765262
 C     11  10   9     2.611348733912   120.78181583   179.06367074
 C     12  11  10     2.615663284821   120.18713483     0.83806910
 C     13  12  11     2.613498877570   119.56436942     0.42728447
 C     14  13  12     2.614231980464   120.07016266   359.11979412
 H      1   2   3     2.043357593678   119.61834724   179.50142988
 H      2   1   3     2.042133992861   119.87165945   180.07545482
 H      3   2   1     2.041099722338   120.19410113   179.66300648
 H      4   3   2     2.041475493566   120.06524571   180.52999564
 H      5   4   3     2.042244436355   119.62356565   179.96541207
 H      7   6   5     2.063357370645   109.79653976     7.17971443
 H      7   6   5     2.067684132733   108.70448201   124.91486556
 H      8   7   6     2.065814908744   108.64701152   193.89058560
 H      8   7   6     2.061028535775   109.22142609   311.04815390
 H      9   8   7     2.064474168581   109.01297860    60.38861238
 H      9   8   7     2.068836606307   108.08607118   177.04868966
 H     11  10   9     2.041867662175   119.71201237   359.28104425
 H     12  11  10     2.041618766895   119.80650764   180.75726730
 H     13  12  11     2.041028455058   120.18426915   180.14688674
 H     14  13  12     2.041993077521   120.08442684   179.40439014
 H     15  14  13     2.043687881045   119.59345517   180.28660175

---------------------
BASIS SET INFORMATION
---------------------
There are 2 groups of distinct atoms

 Group   1 Type C   : 7s4p1d contracted to 3s2p1d pattern {511/31/1}
 Group   2 Type H   : 4s1p contracted to 2s1p pattern {31/1}

Atom   0C    basis set group =>   1
Atom   1C    basis set group =>   1
Atom   2C    basis set group =>   1
Atom   3C    basis set group =>   1
Atom   4C    basis set group =>   1
Atom   5C    basis set group =>   1
Atom   6C    basis set group =>   1
Atom   7C    basis set group =>   1
Atom   8C    basis set group =>   1
Atom   9C    basis set group =>   1
Atom  10C    basis set group =>   1
Atom  11C    basis set group =>   1
Atom  12C    basis set group =>   1
Atom  13C    basis set group =>   1
Atom  14C    basis set group =>   1
Atom  15H    basis set group =>   2
Atom  16H    basis set group =>   2
Atom  17H    basis set group =>   2
Atom  18H    basis set group =>   2
Atom  19H    basis set group =>   2
Atom  20H    basis set group =>   2
Atom  21H    basis set group =>   2
Atom  22H    basis set group =>   2
Atom  23H    basis set group =>   2
Atom  24H    basis set group =>   2
Atom  25H    basis set group =>   2
Atom  26H    basis set group =>   2
Atom  27H    basis set group =>   2
Atom  28H    basis set group =>   2
Atom  29H    basis set group =>   2
Atom  30H    basis set group =>   2
---------------------------------
AUXILIARY/J BASIS SET INFORMATION
---------------------------------
There are 2 groups of distinct atoms

 Group   1 Type C   : 12s5p4d2f1g contracted to 6s4p3d1f1g pattern {711111/2111/211/2/1}
 Group   2 Type H   : 5s2p1d contracted to 3s1p1d pattern {311/2/1}

Atom   0C    basis set group =>   1
Atom   1C    basis set group =>   1
Atom   2C    basis set group =>   1
Atom   3C    basis set group =>   1
Atom   4C    basis set group =>   1
Atom   5C    basis set group =>   1
Atom   6C    basis set group =>   1
Atom   7C    basis set group =>   1
Atom   8C    basis set group =>   1
Atom   9C    basis set group =>   1
Atom  10C    basis set group =>   1
Atom  11C    basis set group =>   1
Atom  12C    basis set group =>   1
Atom  13C    basis set group =>   1
Atom  14C    basis set group =>   1
Atom  15H    basis set group =>   2
Atom  16H    basis set group =>   2
Atom  17H    basis set group =>   2
Atom  18H    basis set group =>   2
Atom  19H    basis set group =>   2
Atom  20H    basis set group =>   2
Atom  21H    basis set group =>   2
Atom  22H    basis set group =>   2
Atom  23H    basis set group =>   2
Atom  24H    basis set group =>   2
Atom  25H    basis set group =>   2
Atom  26H    basis set group =>   2
Atom  27H    basis set group =>   2
Atom  28H    basis set group =>   2
Atom  29H    basis set group =>   2
Atom  30H    basis set group =>   2
------------------------------------------------------------------------------
                             ORCA STARTUP CALCULATIONS
                           -- RI-GTO INTEGRALS CHOSEN --
------------------------------------------------------------------------------
------------------------------------------------------------------------------
                   ___                                                        
                  /   \      - P O W E R E D   B Y -                         
                 /     \                                                     
                 |  |  |   _    _      __       _____    __    __             
                 |  |  |  | |  | |    /  \     |  _  \  |  |  /  |          
                  \  \/   | |  | |   /    \    | | | |  |  | /  /          
                 / \  \   | |__| |  /  /\  \   | |_| |  |  |/  /          
                |  |  |   |  __  | /  /__\  \  |    /   |      \           
                |  |  |   | |  | | |   __   |  |    \   |  |\   \          
                \     /   | |  | | |  |  |  |  | |\  \  |  | \   \       
                 \___/    |_|  |_| |__|  |__|  |_| \__\ |__|  \__/        
                                                                              
                      - O R C A' S   B I G   F R I E N D -                    
                                      &                                       
                       - I N T E G R A L  F E E D E R -                       
                                                                              
 v1 FN, 2020, v2 2021, v3 2022-2024                                           
------------------------------------------------------------------------------


----------------------
SHARK INTEGRAL PACKAGE
----------------------

Number of atoms                             ...     31
Number of basis functions                   ...    290
Number of shells                            ...    138
Maximum angular momentum                    ...      2
Integral batch strategy                     ... SHARK/LIBINT Hybrid
RI-J (if used) integral strategy            ... SPLIT-RIJ (Revised 2003 algorithm where possible)
Printlevel                                  ...      1
Contraction scheme used                     ... SEGMENTED contraction
Prescreening option                         ... SCHWARTZ
   Thresh                                   ... 2.500e-11
   Tcut                                     ... 2.500e-12
   Tpresel                                  ... 2.500e-12 
Coulomb Range Separation                    ... NOT USED
Exchange Range Separation                   ... NOT USED
Multipole approximations                    ... NOT USED
Finite Nucleus Model                        ... NOT USED
CABS basis                                  ... NOT available
Auxiliary Coulomb fitting basis             ... AVAILABLE
   # of basis functions in Aux-J            ...    911
   # of shells in Aux-J                     ...    305
   Maximum angular momentum in Aux-J        ...      4
Auxiliary J/K fitting basis                 ... NOT available
Auxiliary Correlation fitting basis         ... NOT available
Auxiliary 'external' fitting basis          ... NOT available

Checking pre-screening integrals            ... done (  0.0 sec) Dimension = 138
   => SHARK Basis and OBASIS are compatible. Storing Pre-screening
Shell pair information
Shell pair cut-off parameter TPreSel        ...   2.5e-12
Total number of shell pairs                 ...      9591
Shell pairs after pre-screening             ...      8708
Total number of primitive shell pairs       ...     34173
Primitive shell pairs kept                  ...     21176
          la=0 lb=0:   2757 shell pairs
          la=1 lb=0:   3215 shell pairs
          la=1 lb=1:    980 shell pairs
          la=2 lb=0:   1020 shell pairs
          la=2 lb=1:    622 shell pairs
          la=2 lb=2:    114 shell pairs

Checking whether 4 symmetric matrices of dimension 290 fit in memory
:Max Core in MB      =   4096.00
 MB in use           =     14.27
 MB left             =   4081.73
 MB needed           =      1.29
 Data fit in memory  = YES
Calculating RI/J V-Matrix + Cholesky decomp.... done (  0.0 sec)
Calculating Nuclear repulsion               ... done (  0.0 sec) ENN=    972.999529923008 Eh

Diagonalization of the overlap matrix:
Smallest eigenvalue                        ... 2.185e-04
Time for diagonalization                   ...    0.008 sec
Threshold for overlap eigenvalues          ... 1.000e-07
Number of eigenvalues below threshold      ... 0
Time for construction of square roots      ...    0.003 sec
Total time needed                          ...    0.011 sec

-------------------
DFT GRID GENERATION
-------------------

General Integration Accuracy     IntAcc      ... 4.388
Radial Grid Type                 RadialGrid  ... OptM3 with GC (2021)
Angular Grid (max. ang.)         AngularGrid ... 4 (Lebedev-302)
Angular grid pruning method      GridPruning ... 4 (adaptive)
Weight generation scheme         WeightScheme... mBecke (2022)
Basis function cutoff            BFCut       ... 1.0000e-11
Integration weight cutoff        WCut        ... 1.0000e-14
Partially contracted basis set               ... off
Rotationally invariant grid construction     ... off
Angular grids for H and He will be reduced by one unit

Total number of grid points                  ...   139900
Total number of batches                      ...     2202
Average number of points per batch           ...       63
Average number of grid points per atom       ...     4513

--------------------
COSX GRID GENERATION
--------------------

GRIDX 1
-------
General Integration Accuracy     IntAcc      ... 3.816
Radial Grid Type                 RadialGrid  ... OptM3 with GC (2021)
Angular Grid (max. ang.)         AngularGrid ... 1 (Lebedev-50)
Angular grid pruning method      GridPruning ... 4 (adaptive)
Weight generation scheme         WeightScheme... mBecke (2022)
Basis function cutoff            BFCut       ... 1.0000e-11
Integration weight cutoff        WCut        ... 1.0000e-14
Partially contracted basis set               ... on
Rotationally invariant grid construction     ... off
Angular grids for H and He will be reduced by one unit

Total number of grid points                  ...    17831
Total number of batches                      ...      156
Average number of points per batch           ...      114
Average number of grid points per atom       ...      575
UseSFitting                                  ... on

GRIDX 2
-------
General Integration Accuracy     IntAcc      ... 4.020
Radial Grid Type                 RadialGrid  ... OptM3 with GC (2021)
Angular Grid (max. ang.)         AngularGrid ... 2 (Lebedev-110)
Angular grid pruning method      GridPruning ... 4 (adaptive)
Weight generation scheme         WeightScheme... mBecke (2022)
Basis function cutoff            BFCut       ... 1.0000e-11
Integration weight cutoff        WCut        ... 1.0000e-14
Partially contracted basis set               ... on
Rotationally invariant grid construction     ... off
Angular grids for H and He will be reduced by one unit

Total number of grid points                  ...    37926
Total number of batches                      ...      315
Average number of points per batch           ...      120
Average number of grid points per atom       ...     1223
UseSFitting                                  ... on

GRIDX 3
-------
General Integration Accuracy     IntAcc      ... 4.338
Radial Grid Type                 RadialGrid  ... OptM3 with GC (2021)
Angular Grid (max. ang.)         AngularGrid ... 3 (Lebedev-194)
Angular grid pruning method      GridPruning ... 4 (adaptive)
Weight generation scheme         WeightScheme... mBecke (2022)
Basis function cutoff            BFCut       ... 1.0000e-11
Integration weight cutoff        WCut        ... 1.0000e-14
Partially contracted basis set               ... on
Rotationally invariant grid construction     ... off
Angular grids for H and He will be reduced by one unit

Total number of grid points                  ...    82645
Total number of batches                      ...      661
Average number of points per batch           ...      125
Average number of grid points per atom       ...     2666
UseSFitting                                  ... on
Grids setup in   3.0 sec
Initializing property integral containers    ... done (  0.0 sec)

SHARK setup successfully completed in   3.2 seconds

Maximum memory used throughout the entire STARTUP-calculation: 60.3 MB
-------------------------------------------------------------------------------
                                 ORCA GUESS
                   Start orbitals & Density for SCF / CASSCF
-------------------------------------------------------------------------------

------------
SCF SETTINGS
------------
Hamiltonian:
 Density Functional     Method          .... DFT(GTOs)
 Exchange Functional    Exchange        .... B88
   X-Alpha parameter    XAlpha          ....  0.666667
   Becke's b parameter  XBeta           ....  0.004200
 Correlation Functional Correlation     .... LYP
 LDA part of GGA corr.  LDAOpt          .... VWN-5
 Gradients option       PostSCFGGA      .... off
 Hybrid DFT is turned on
   Fraction HF Exchange ScalHFX         ....  0.200000
   Scaling of DF-GGA-X  ScalDFX         ....  0.720000
   Scaling of DF-GGA-C  ScalDFC         ....  0.810000
   Scaling of DF-LDA-C  ScalLDAC        ....  1.000000
   Perturbative correction              ....  0.000000
   NL short-range parameter             ....  4.800000
 RI-approximation to the Coulomb term is turned on
   Number of AuxJ basis functions       .... 911
   RIJ-COSX (HFX calculated with COS-X)).... on


General Settings:
 Integral files         IntName         .... global_minimum_d3bj
 Hartree-Fock type      HFTyp           .... RHF
 Total Charge           Charge          ....    0
 Multiplicity           Mult            ....    1
 Number of Electrons    NEL             ....  106
 Basis Dimension        Dim             ....  290
 Nuclear Repulsion      ENuc            ....    972.9995299230 Eh

Convergence Acceleration:
 AO-DIIS                CNVDIIS         .... on
   Start iteration      DIISMaxIt       ....    12
   Startup error        DIISStart       ....  0.200000
   # of expansion vecs  DIISMaxEq       ....     5
   Bias factor          DIISBfac        ....   1.050
   Max. coefficient     DIISMaxC        ....  10.000
 MO-DIIS                CNVKDIIS        .... off
 Trust-Rad. Augm. Hess. CNVTRAH         .... auto
   Auto Start mean grad. ratio tolernc. ....  1.125000
   Auto Start start iteration           ....    50
   Auto Start num. interpolation iter.  ....    10
   Max. Number of Micro iterations      ....    24
   Max. Number of Macro iterations      .... Maxiter - #DIIS iter
   Number of Davidson start vectors     ....     2
   Converg. threshold    (grad. norm)   ....   1.000e-05
   Grad. Scal. Fac. for Micro threshold ....   0.100
   Minimum threshold for Micro iter.    ....   1.000e-02
   NR start threshold (gradient norm)   ....   1.000e-04
   Initial trust radius                 ....   0.400
   Minimum AH scaling param. (alpha)    ....   1.000
   Maximum AH scaling param. (alpha)    .... 1000.000
   Quad. conv. algorithm                .... NR
   White noise on init. David. guess    .... on
   Maximum white noise                  ....   0.010
   Pseudo random numbers                .... off
   Inactive MOs                         .... canonical
   Orbital update algorithm             .... Taylor
   Preconditioner                       .... Diag
   Full preconditioner red. dimension   ....   250
 SOSCF                 CNVSOSCF           .... on
   Start iteration     SOSCFMaxIt         ....   150
   Startup grad/error  SOSCFStart         ....  0.003300
   Hessian update      SOSCFHessUp        .... L-BFGS
   Autom. constraints  SOSCFAutoConstrain .... off
 Level Shifting         CNVShift        .... on
   Level shift para.    LevelShift      ....    0.2500
   Turn off err/grad.   ShiftErr        ....    0.0010
 Zerner damping         CNVZerner       .... off
 Static damping         CNVDamp         .... on
   Fraction old density DampFac         ....    0.7000
   Max. Damping (<1)    DampMax         ....    0.9800
   Min. Damping (>=0)   DampMin         ....    0.0000
   Turn off err/grad.   DampErr         ....    0.1000

SCF Procedure:
 Maximum # iterations   MaxIter         ....   125
 SCF integral mode      SCFMode         .... Direct
   Integral package                     .... SHARK and LIBINT hybrid scheme
 Reset frequency        DirectResetFreq ....    20
 Integral Threshold     Thresh          ....  2.500e-11 Eh
 Primitive CutOff       TCut            ....  2.500e-12 Eh

Convergence Tolerance:
 Convergence Check Mode ConvCheckMode   .... Total+1el-Energy
 Convergence forced     ConvForced      .... 0
 Energy Change          TolE            ....  1.000e-08 Eh
 1-El. energy change                    ....  1.000e-05 Eh
 Orbital Gradient       TolG            ....  1.000e-05
 Orbital Rotation angle TolX            ....  1.000e-05
 DIIS Error             TolErr          ....  5.000e-07

------------------------------
INITIAL GUESS: MODEL POTENTIAL
------------------------------
Loading Hartree-Fock densities                     ... done
Calculating cut-offs                               ... done
Initializing the effective Hamiltonian             ... done
Setting up the integral package (SHARK)            ... done
Starting the Coulomb interaction                   ... done (   0.4 sec)
Making the grid                                    ... done (   0.4 sec)
Mapping shells                                     ... done
Starting the XC term evaluation                    ... done (   0.4 sec)
  promolecular density results
     # of electrons  =    105.995110305
     EX              =    -81.935806102
     EC              =     -3.511872027
     EX+EC           =    -85.447678128
Transforming the Hamiltonian                       ... done (   0.0 sec)
Diagonalizing the Hamiltonian                      ... done (   0.0 sec)
Back transforming the eigenvectors                 ... done (   0.0 sec)
Now organizing SCF variables                       ... done
                      ------------------
                      INITIAL GUESS DONE (   1.2 sec)
                      ------------------
             **** ENERGY FILE WAS UPDATED (global_minimum_d3bj.en.tmp) ****
Finished Guess after   1.2 sec
Maximum memory used throughout the entire GUESS-calculation: 23.1 MB

-------------------------------------------------------------------------------------------
                                      ORCA LEAN-SCF
                              memory conserving SCF solver
-------------------------------------------------------------------------------------------

----------------------------------------D-I-I-S--------------------------------------------
Iteration    Energy (Eh)           Delta-E    RMSDP     MaxDP     DIISErr   Damp  Time(sec)
-------------------------------------------------------------------------------------------
               ***  Starting incremental Fock matrix formation  ***
    1    -580.0638474892908789     0.00e+00  3.16e-03  6.73e-02  1.35e-01  0.700  12.3
    2    -580.2251640853975232    -1.61e-01  2.20e-03  4.29e-02  7.36e-02  0.700   6.0
                               ***Turning on AO-DIIS***
    3    -580.2959008485887580    -7.07e-02  9.68e-04  1.51e-02  3.09e-02  0.700   5.9
    4    -580.3367726394513966    -4.09e-02  1.89e-03  3.21e-02  1.66e-02  0.000   3.0
    5    -580.4241437693707439    -8.74e-02  2.44e-04  7.10e-03  4.46e-03  0.000   6.1
                              *** Initializing SOSCF ***
---------------------------------------S-O-S-C-F--------------------------------------
Iteration    Energy (Eh)           Delta-E    RMSDP     MaxDP     MaxGrad    Time(sec)
--------------------------------------------------------------------------------------
    6    -580.4245882484464119    -4.44e-04  9.29e-05  1.93e-03  9.99e-04     5.4
               *** Restarting incremental Fock matrix formation ***
    7    -580.4245320042626872     5.62e-05  6.49e-05  1.86e-03  1.97e-04    12.0
    8    -580.4245307759437082     1.23e-06  2.18e-05  5.49e-04  3.77e-04     5.8
    9    -580.4245349936062439    -4.22e-06  1.56e-05  2.68e-04  8.43e-05     7.8
   10    -580.4245348683956536     1.25e-07  7.00e-06  1.65e-04  6.42e-05     7.5
   11    -580.4245353568006749    -4.88e-07  2.47e-06  5.96e-05  1.21e-05     7.0
   12    -580.4245353672462215    -1.04e-08  1.23e-06  2.90e-05  1.79e-05     5.9
   13    -580.4245353622376342     5.01e-09  5.85e-07  1.50e-05  1.60e-06     2.9
                 **** Energy Check signals convergence ****

               *****************************************************
               *                     SUCCESS                       *
               *           SCF CONVERGED AFTER  13 CYCLES          *
               *****************************************************

Recomputing exchange energy using gridx3       ... done (   20.788 sec)
Old exchange energy                            :    -16.697257639 Eh
New exchange energy                            :    -16.697237713 Eh
Exchange energy change after final integration :      0.000019926 Eh
Total energy after final integration           :   -580.424515437 Eh
             **** ENERGY FILE WAS UPDATED (global_minimum_d3bj.en.tmp) ****

----------------
TOTAL SCF ENERGY
----------------

Total Energy       :       -580.42451543663481 Eh          -15794.15402 eV

Components:
Nuclear Repulsion  :        972.99952992300848 Eh           26476.66326 eV
Electronic Energy  :      -1553.42406528569813 Eh          -42270.81782 eV
One Electron Energy:      -2714.36496966582718 Eh          -73861.62588 eV
Two Electron Energy:       1160.94090438012904 Eh           31590.80805 eV

Virial components:
Potential Energy   :      -1155.02970277770919 Eh          -31429.95608 eV
Kinetic Energy     :        574.60518734107438 Eh           15635.80206 eV
Virial Ratio       :          2.01012752447030

DFT components:
N(Alpha)           :       53.000023104641 electrons
N(Beta)            :       53.000023104641 electrons
N(Total)           :      106.000046209281 electrons
E(X)               :      -66.214464395942 Eh       
E(C)               :       -4.146235444589 Eh       
E(XC)              :      -70.360699840531 Eh       

---------------
SCF CONVERGENCE
---------------

  Last Energy change         ...   -5.0086e-09  Tolerance :   1.0000e-08
  Last MAX-Density change    ...    1.5000e-05  Tolerance :   1.0000e-07
  Last RMS-Density change    ...    5.8484e-07  Tolerance :   5.0000e-09
  Last DIIS Error            ...    9.9928e-04  Tolerance :   5.0000e-07
  Last Orbital Gradient      ...    1.6039e-06  Tolerance :   1.0000e-05
  Last Orbital Rotation      ...    3.8675e-06  Tolerance :   1.0000e-05


----------------
ORBITAL ENERGIES
----------------

  NO   OCC          E(Eh)            E(eV) 
   0   2.0000     -10.181278      -277.0467 
   1   2.0000     -10.180120      -277.0151 
   2   2.0000     -10.179520      -276.9988 
   3   2.0000     -10.179384      -276.9951 
   4   2.0000     -10.178280      -276.9651 
   5   2.0000     -10.175673      -276.8942 
   6   2.0000     -10.174565      -276.8640 
   7   2.0000     -10.173884      -276.8454 
   8   2.0000     -10.173605      -276.8379 
   9   2.0000     -10.173468      -276.8341 
  10   2.0000     -10.172942      -276.8198 
  11   2.0000     -10.172159      -276.7985 
  12   2.0000     -10.171962      -276.7932 
  13   2.0000     -10.171246      -276.7737 
  14   2.0000     -10.171198      -276.7724 
  15   2.0000      -0.852347       -23.1935 
  16   2.0000      -0.841247       -22.8915 
  17   2.0000      -0.795853       -21.6562 
  18   2.0000      -0.753261       -20.4973 
  19   2.0000      -0.732794       -19.9404 
  20   2.0000      -0.727962       -19.8089 
  21   2.0000      -0.717605       -19.5270 
  22   2.0000      -0.665408       -18.1067 
  23   2.0000      -0.611098       -16.6288 
  24   2.0000      -0.594328       -16.1725 
  25   2.0000      -0.591139       -16.0857 
  26   2.0000      -0.569776       -15.5044 
  27   2.0000      -0.555362       -15.1122 
  28   2.0000      -0.508890       -13.8476 
  29   2.0000      -0.502788       -13.6816 
  30   2.0000      -0.465582       -12.6691 
  31   2.0000      -0.459375       -12.5002 
  32   2.0000      -0.454246       -12.3607 
  33   2.0000      -0.440418       -11.9844 
  34   2.0000      -0.435456       -11.8494 
  35   2.0000      -0.428097       -11.6491 
  36   2.0000      -0.412674       -11.2294 
  37   2.0000      -0.411820       -11.2062 
  38   2.0000      -0.402039       -10.9400 
  39   2.0000      -0.382259       -10.4018 
  40   2.0000      -0.374063       -10.1788 
  41   2.0000      -0.370095       -10.0708 
  42   2.0000      -0.366189        -9.9645 
  43   2.0000      -0.347913        -9.4672 
  44   2.0000      -0.335056        -9.1173 
  45   2.0000      -0.331210        -9.0127 
  46   2.0000      -0.326975        -8.8974 
  47   2.0000      -0.325731        -8.8636 
  48   2.0000      -0.316276        -8.6063 
  49   2.0000      -0.258076        -7.0226 
  50   2.0000      -0.255092        -6.9414 
  51   2.0000      -0.233178        -6.3451 
  52   2.0000      -0.218088        -5.9345 
  53   0.0000      -0.010464        -0.2847 
  54   0.0000      -0.006123        -0.1666 
  55   0.0000       0.015296         0.4162 
  56   0.0000       0.020056         0.5457 
  57   0.0000       0.056577         1.5395 
  58   0.0000       0.074041         2.0148 
  59   0.0000       0.075620         2.0577 
  60   0.0000       0.083273         2.2660 
  61   0.0000       0.107903         2.9362 
  62   0.0000       0.111273         3.0279 
  63   0.0000       0.115863         3.1528 
*Only the first 10 virtual orbitals were printed.

                    ********************************
                    * MULLIKEN POPULATION ANALYSIS *
                    ********************************

-----------------------
MULLIKEN ATOMIC CHARGES
-----------------------
   0 C :   -0.009896
   1 C :    0.028544
   2 C :    0.025832
   3 C :    0.042117
   4 C :    0.027781
   5 C :   -0.022528
   6 C :    0.142579
   7 C :   -0.003063
   8 C :    0.146548
   9 C :   -0.024915
  10 C :    0.018118
  11 C :    0.039616
  12 C :    0.032220
  13 C :    0.028197
  14 C :   -0.010476
  15 H :   -0.045852
  16 H :   -0.036583
  17 H :   -0.035250
  18 H :   -0.036518
  19 H :   -0.048369
  20 H :   -0.025927
  21 H :   -0.001167
  22 H :   -0.007035
  23 H :   -0.002550
  24 H :   -0.026238
  25 H :    0.002827
  26 H :   -0.045386
  27 H :   -0.034270
  28 H :   -0.033960
  29 H :   -0.036507
  30 H :   -0.047888
Sum of atomic charges:    0.0000000

--------------------------------
MULLIKEN REDUCED ORBITAL CHARGES
--------------------------------
  0 C s       :     3.212253  s :     3.212253
      pz      :     0.842085  p :     2.762062
      px      :     0.972292
      py      :     0.947685
      dz2     :     0.007482  d :     0.035580
      dxz     :     0.003914
      dyz     :     0.009988
      dx2y2   :     0.006840
      dxy     :     0.007357

  1 C s       :     3.156973  s :     3.156973
      pz      :     0.930981  p :     2.777839
      px      :     0.966641
      py      :     0.880216
      dz2     :     0.008142  d :     0.036643
      dxz     :     0.005148
      dyz     :     0.011485
      dx2y2   :     0.005628
      dxy     :     0.006240

  2 C s       :     3.154517  s :     3.154517
      pz      :     0.951775  p :     2.783389
      px      :     0.988754
      py      :     0.842859
      dz2     :     0.008794  d :     0.036262
      dxz     :     0.005597
      dyz     :     0.010495
      dx2y2   :     0.006590
      dxy     :     0.004787

  3 C s       :     3.147956  s :     3.147956
      pz      :     0.857513  p :     2.773417
      px      :     0.944549
      py      :     0.971354
      dz2     :     0.007523  d :     0.036511
      dxz     :     0.004172
      dyz     :     0.010066
      dx2y2   :     0.007078
      dxy     :     0.007673

  4 C s       :     3.175526  s :     3.175526
      pz      :     0.960832  p :     2.760779
      px      :     0.962491
      py      :     0.837457
      dz2     :     0.007863  d :     0.035913
      dxz     :     0.005104
      dyz     :     0.011050
      dx2y2   :     0.005672
      dxy     :     0.006224

  5 C s       :     3.046797  s :     3.046797
      pz      :     0.992742  p :     2.931678
      px      :     0.958487
      py      :     0.980449
      dz2     :     0.010138  d :     0.044053
      dxz     :     0.005942
      dyz     :     0.012376
      dx2y2   :     0.007919
      dxy     :     0.007677

  6 C s       :     2.921953  s :     2.921953
      pz      :     0.958576  p :     2.899115
      px      :     0.981315
      py      :     0.959224
      dz2     :     0.006476  d :     0.036353
      dxz     :     0.006887
      dyz     :     0.006800
      dx2y2   :     0.008333
      dxy     :     0.007856

  7 C s       :     2.997125  s :     2.997125
      pz      :     0.999426  p :     2.968458
      px      :     0.987145
      py      :     0.981887
      dz2     :     0.005949  d :     0.037480
      dxz     :     0.007812
      dyz     :     0.009489
      dx2y2   :     0.007534
      dxy     :     0.006697

  8 C s       :     2.916750  s :     2.916750
      pz      :     0.948011  p :     2.900101
      px      :     0.966570
      py      :     0.985520
      dz2     :     0.007733  d :     0.036601
      dxz     :     0.005870
      dyz     :     0.010278
      dx2y2   :     0.006347
      dxy     :     0.006373

  9 C s       :     3.051836  s :     3.051836
      pz      :     0.963134  p :     2.929084
      px      :     0.974764
      py      :     0.991185
      dz2     :     0.010086  d :     0.043996
      dxz     :     0.007112
      dyz     :     0.011901
      dx2y2   :     0.007495
      dxy     :     0.007402

 10 C s       :     3.193987  s :     3.193987
      pz      :     0.837085  p :     2.752275
      px      :     0.945384
      py      :     0.969807
      dz2     :     0.007860  d :     0.035620
      dxz     :     0.005178
      dyz     :     0.009066
      dx2y2   :     0.006695
      dxy     :     0.006821

 11 C s       :     3.149458  s :     3.149458
      pz      :     0.960249  p :     2.774304
      px      :     0.941731
      py      :     0.872324
      dz2     :     0.009840  d :     0.036622
      dxz     :     0.006412
      dyz     :     0.009970
      dx2y2   :     0.004573
      dxy     :     0.005827

 12 C s       :     3.151467  s :     3.151467
      pz      :     0.915323  p :     2.780052
      px      :     0.984881
      py      :     0.879847
      dz2     :     0.007893  d :     0.036261
      dxz     :     0.005505
      dyz     :     0.011370
      dx2y2   :     0.006292
      dxy     :     0.005201

 13 C s       :     3.159932  s :     3.159932
      pz      :     0.851739  p :     2.775344
      px      :     0.951473
      py      :     0.972132
      dz2     :     0.008096  d :     0.036528
      dxz     :     0.005027
      dyz     :     0.009528
      dx2y2   :     0.006873
      dxy     :     0.007003

 14 C s       :     3.210863  s :     3.210863
      pz      :     0.970511  p :     2.763880
      px      :     0.970042
      py      :     0.823327
      dz2     :     0.009700  d :     0.035734
      dxz     :     0.006275
      dyz     :     0.009715
      dx2y2   :     0.004518
      dxy     :     0.005526

 15 H s       :     1.022439  s :     1.022439
      pz      :     0.012767  p :     0.023413
      px      :     0.006858
      py      :     0.003789

 16 H s       :     1.013245  s :     1.013245
      pz      :     0.006863  p :     0.023338
      px      :     0.005976
      py      :     0.010500

 17 H s       :     1.011895  s :     1.011895
      pz      :     0.005419  p :     0.023355
      px      :     0.004794
      py      :     0.013142

 18 H s       :     1.013203  s :     1.013203
      pz      :     0.012722  p :     0.023315
      px      :     0.006800
      py      :     0.003793

 19 H s       :     1.025079  s :     1.025079
      pz      :     0.006861  p :     0.023290
      px      :     0.006086
      py      :     0.010343

 20 H s       :     1.003257  s :     1.003257
      pz      :     0.007655  p :     0.022670
      px      :     0.006691
      py      :     0.008324

 21 H s       :     0.978150  s :     0.978150
      pz      :     0.012380  p :     0.023018
      px      :     0.006199
      py      :     0.004438

 22 H s       :     0.984740  s :     0.984740
      pz      :     0.007382  p :     0.022295
      px      :     0.004111
      py      :     0.010802

 23 H s       :     0.979717  s :     0.979717
      pz      :     0.006280  p :     0.022833
      px      :     0.006639
      py      :     0.009915

 24 H s       :     1.003600  s :     1.003600
      pz      :     0.005785  p :     0.022638
      px      :     0.006894
      py      :     0.009959

 25 H s       :     0.974163  s :     0.974163
      pz      :     0.004711  p :     0.023010
      px      :     0.012726
      py      :     0.005573

 26 H s       :     1.021933  s :     1.021933
      pz      :     0.012649  p :     0.023453
      px      :     0.006976
      py      :     0.003828

 27 H s       :     1.010954  s :     1.010954
      pz      :     0.004567  p :     0.023316
      px      :     0.006858
      py      :     0.011891

 28 H s       :     1.010606  s :     1.010606
      pz      :     0.008237  p :     0.023353
      px      :     0.004615
      py      :     0.010501

 29 H s       :     1.013178  s :     1.013178
      pz      :     0.012811  p :     0.023329
      px      :     0.006733
      py      :     0.003786

 30 H s       :     1.024559  s :     1.024559
      pz      :     0.004578  p :     0.023329
      px      :     0.006919
      py      :     0.011832



                     *******************************
                     * LOEWDIN POPULATION ANALYSIS *
                     *******************************

----------------------
LOEWDIN ATOMIC CHARGES
----------------------
   0 C :   -0.029219
   1 C :   -0.024498
   2 C :   -0.030407
   3 C :   -0.016244
   4 C :   -0.017343
   5 C :   -0.020785
   6 C :   -0.017102
   7 C :   -0.020192
   8 C :   -0.017394
   9 C :   -0.021372
  10 C :   -0.017229
  11 C :   -0.013873
  12 C :   -0.027317
  13 C :   -0.023270
  14 C :   -0.029911
  15 H :    0.016757
  16 H :    0.020653
  17 H :    0.020384
  18 H :    0.021087
  19 H :    0.017305
  20 H :    0.019558
  21 H :    0.028689
  22 H :    0.019422
  23 H :    0.015395
  24 H :    0.019457
  25 H :    0.029355
  26 H :    0.017939
  27 H :    0.021963
  28 H :    0.020831
  29 H :    0.020738
  30 H :    0.016625

-------------------------------
LOEWDIN REDUCED ORBITAL CHARGES
-------------------------------
  0 C s       :     2.850624  s :     2.850624
      pz      :     1.023999  p :     3.084505
      px      :     0.997603
      py      :     1.062903
      dz2     :     0.019754  d :     0.094089
      dxz     :     0.009137
      dyz     :     0.027882
      dx2y2   :     0.019632
      dxy     :     0.017683

  1 C s       :     2.851455  s :     2.851455
      pz      :     1.041956  p :     3.077844
      px      :     0.986895
      py      :     1.048993
      dz2     :     0.021290  d :     0.095199
      dxz     :     0.012910
      dyz     :     0.031345
      dx2y2   :     0.014947
      dxy     :     0.014707

  2 C s       :     2.851429  s :     2.851429
      pz      :     1.046893  p :     3.084680
      px      :     0.998215
      py      :     1.039572
      dz2     :     0.023112  d :     0.094298
      dxz     :     0.014558
      dyz     :     0.028642
      dx2y2   :     0.016555
      dxy     :     0.011430

  3 C s       :     2.851833  s :     2.851833
      pz      :     1.020727  p :     3.069589
      px      :     0.977699
      py      :     1.071162
      dz2     :     0.019261  d :     0.094823
      dxz     :     0.009634
      dyz     :     0.027847
      dx2y2   :     0.019577
      dxy     :     0.018504

  4 C s       :     2.851934  s :     2.851934
      pz      :     1.035259  p :     3.070942
      px      :     0.988213
      py      :     1.047470
      dz2     :     0.020584  d :     0.094467
      dxz     :     0.012800
      dyz     :     0.031095
      dx2y2   :     0.015229
      dxy     :     0.014761

  5 C s       :     2.849222  s :     2.849222
      pz      :     1.048926  p :     3.060673
      px      :     0.971733
      py      :     1.040013
      dz2     :     0.025430  d :     0.110891
      dxz     :     0.015362
      dyz     :     0.032894
      dx2y2   :     0.019546
      dxy     :     0.017659

  6 C s       :     2.827577  s :     2.827577
      pz      :     1.048465  p :     3.098608
      px      :     1.027279
      py      :     1.022864
      dz2     :     0.016968  d :     0.090916
      dxz     :     0.016510
      dyz     :     0.017297
      dx2y2   :     0.022111
      dxy     :     0.018030

  7 C s       :     2.835997  s :     2.835997
      pz      :     1.026841  p :     3.093646
      px      :     1.018368
      py      :     1.048437
      dz2     :     0.015083  d :     0.090550
      dxz     :     0.017340
      dyz     :     0.023067
      dx2y2   :     0.018847
      dxy     :     0.016212

  8 C s       :     2.827730  s :     2.827730
      pz      :     1.021069  p :     3.098047
      px      :     1.047249
      py      :     1.029729
      dz2     :     0.019039  d :     0.091616
      dxz     :     0.014833
      dyz     :     0.025862
      dx2y2   :     0.016037
      dxy     :     0.015845

  9 C s       :     2.849570  s :     2.849570
      pz      :     1.041384  p :     3.060986
      px      :     0.981751
      py      :     1.037851
      dz2     :     0.026277  d :     0.110816
      dxz     :     0.017288
      dyz     :     0.031915
      dx2y2   :     0.017727
      dxy     :     0.017608

 10 C s       :     2.850338  s :     2.850338
      pz      :     1.026412  p :     3.072941
      px      :     0.992691
      py      :     1.053838
      dz2     :     0.020880  d :     0.093950
      dxz     :     0.012322
      dyz     :     0.025743
      dx2y2   :     0.017719
      dxy     :     0.017286

 11 C s       :     2.851478  s :     2.851478
      pz      :     1.051700  p :     3.067370
      px      :     0.981740
      py      :     1.033930
      dz2     :     0.026164  d :     0.095025
      dxz     :     0.016125
      dyz     :     0.027744
      dx2y2   :     0.011301
      dxy     :     0.013691

 12 C s       :     2.851669  s :     2.851669
      pz      :     1.041417  p :     3.081372
      px      :     1.000577
      py      :     1.039377
      dz2     :     0.021028  d :     0.094276
      dxz     :     0.014375
      dyz     :     0.030198
      dx2y2   :     0.015384
      dxy     :     0.013291

 13 C s       :     2.852033  s :     2.852033
      pz      :     1.026807  p :     3.076305
      px      :     0.987921
      py      :     1.061577
      dz2     :     0.020959  d :     0.094933
      dxz     :     0.011876
      dyz     :     0.026542
      dx2y2   :     0.017842
      dxy     :     0.017713

 14 C s       :     2.852618  s :     2.852618
      pz      :     1.049258  p :     3.082744
      px      :     0.999879
      py      :     1.033607
      dz2     :     0.026519  d :     0.094549
      dxz     :     0.015774
      dyz     :     0.027826
      dx2y2   :     0.011251
      dxy     :     0.013178

 15 H s       :     0.914249  s :     0.914249
      pz      :     0.036332  p :     0.068994
      px      :     0.020337
      py      :     0.012325

 16 H s       :     0.911130  s :     0.911130
      pz      :     0.020388  p :     0.068218
      px      :     0.017823
      py      :     0.030007

 17 H s       :     0.911089  s :     0.911089
      pz      :     0.016711  p :     0.068527
      px      :     0.014734
      py      :     0.037082

 18 H s       :     0.910769  s :     0.910769
      pz      :     0.035894  p :     0.068144
      px      :     0.019927
      py      :     0.012323

 19 H s       :     0.914002  s :     0.914002
      pz      :     0.020426  p :     0.068693
      px      :     0.018119
      py      :     0.030148

 20 H s       :     0.914561  s :     0.914561
      pz      :     0.021324  p :     0.065881
      px      :     0.019915
      py      :     0.024642

 21 H s       :     0.904948  s :     0.904948
      pz      :     0.035562  p :     0.066363
      px      :     0.017948
      py      :     0.012853

 22 H s       :     0.914311  s :     0.914311
      pz      :     0.022509  p :     0.066268
      px      :     0.013281
      py      :     0.030478

 23 H s       :     0.917202  s :     0.917202
      pz      :     0.018843  p :     0.067403
      px      :     0.020845
      py      :     0.027716

 24 H s       :     0.914847  s :     0.914847
      pz      :     0.017702  p :     0.065696
      px      :     0.019314
      py      :     0.028680

 25 H s       :     0.904243  s :     0.904243
      pz      :     0.014372  p :     0.066403
      px      :     0.036674
      py      :     0.015357

 26 H s       :     0.913020  s :     0.913020
      pz      :     0.036027  p :     0.069041
      px      :     0.020505
      py      :     0.012509

 27 H s       :     0.909957  s :     0.909957
      pz      :     0.014308  p :     0.068080
      px      :     0.020130
      py      :     0.033643

 28 H s       :     0.910650  s :     0.910650
      pz      :     0.024154  p :     0.068519
      px      :     0.014260
      py      :     0.030105

 29 H s       :     0.910923  s :     0.910923
      pz      :     0.036110  p :     0.068339
      px      :     0.019872
      py      :     0.012357

 30 H s       :     0.914477  s :     0.914477
      pz      :     0.014226  p :     0.068899
      px      :     0.020821
      py      :     0.033852



                      *****************************
                      * MAYER POPULATION ANALYSIS *
                      *****************************

  NA   - Mulliken gross atomic population
  ZA   - Total nuclear charge
  QA   - Mulliken gross atomic charge
  VA   - Mayer's total valence
  BVA  - Mayer's bonded valence
  FA   - Mayer's free valence

  ATOM       NA         ZA         QA         VA         BVA        FA
  0 C      6.0099     6.0000    -0.0099     3.8612     3.8612    -0.0000
  1 C      5.9715     6.0000     0.0285     3.8337     3.8337    -0.0000
  2 C      5.9742     6.0000     0.0258     3.8286     3.8286    -0.0000
  3 C      5.9579     6.0000     0.0421     3.8477     3.8477     0.0000
  4 C      5.9722     6.0000     0.0278     3.8587     3.8587     0.0000
  5 C      6.0225     6.0000    -0.0225     4.0018     4.0018    -0.0000
  6 C      5.8574     6.0000     0.1426     3.9587     3.9587     0.0000
  7 C      6.0031     6.0000    -0.0031     4.1122     4.1122     0.0000
  8 C      5.8535     6.0000     0.1465     3.9709     3.9709     0.0000
  9 C      6.0249     6.0000    -0.0249     3.9776     3.9776     0.0000
 10 C      5.9819     6.0000     0.0181     3.8449     3.8449    -0.0000
 11 C      5.9604     6.0000     0.0396     3.8522     3.8522    -0.0000
[...]
      py      :     1.052245
      dz2     :     0.022142  d :     0.089799
      dxz     :     0.009372
      dyz     :     0.027120
      dx2y2   :     0.016028
      dxy     :     0.015137

 11 C s       :     2.861932  s :     2.861932
      pz      :     1.054550  p :     3.063895
      px      :     0.975187
      py      :     1.034158
      dz2     :     0.026764  d :     0.090770
      dxz     :     0.014992
      dyz     :     0.028163
      dx2y2   :     0.010782
      dxy     :     0.010070

 12 C s       :     2.862388  s :     2.862388
      pz      :     1.043032  p :     3.078344
      px      :     0.992794
      py      :     1.042519
      dz2     :     0.021541  d :     0.090096
      dxz     :     0.011959
      dyz     :     0.031055
      dx2y2   :     0.013837
      dxy     :     0.011703

 13 C s       :     2.862571  s :     2.862571
      pz      :     1.030170  p :     3.074356
      px      :     0.983023
      py      :     1.061163
      dz2     :     0.021510  d :     0.090652
      dxz     :     0.009433
      dyz     :     0.027724
      dx2y2   :     0.016211
      dxy     :     0.015774

 14 C s       :     2.863260  s :     2.863260
      pz      :     1.051104  p :     3.080751
      px      :     0.997861
      py      :     1.031785
      dz2     :     0.027151  d :     0.090212
      dxz     :     0.014683
      dyz     :     0.027888
      dx2y2   :     0.010492
      dxy     :     0.009999

 15 H s       :     0.913501  s :     0.913501
      pz      :     0.036596  p :     0.066815
      px      :     0.018301
      py      :     0.011918

 16 H s       :     0.909963  s :     0.909963
      pz      :     0.022170  p :     0.066244
      px      :     0.016146
      py      :     0.027929

 17 H s       :     0.910085  s :     0.910085
      pz      :     0.014596  p :     0.066532
      px      :     0.014132
      py      :     0.037804

 18 H s       :     0.909270  s :     0.909270
      pz      :     0.036900  p :     0.066274
      px      :     0.017455
      py      :     0.011919

 19 H s       :     0.911762  s :     0.911762
      pz      :     0.022666  p :     0.067180
      px      :     0.016238
      py      :     0.028275

 20 H s       :     0.913893  s :     0.913893
      pz      :     0.022166  p :     0.064158
      px      :     0.019137
      py      :     0.022855

 21 H s       :     0.905231  s :     0.905231
      pz      :     0.034278  p :     0.064711
      px      :     0.017886
      py      :     0.012548

 22 H s       :     0.913211  s :     0.913211
      pz      :     0.022067  p :     0.064501
      px      :     0.012466
      py      :     0.029967

 23 H s       :     0.917535  s :     0.917535
      pz      :     0.019109  p :     0.065138
      px      :     0.019798
      py      :     0.026231

 24 H s       :     0.914733  s :     0.914733
      pz      :     0.016577  p :     0.064063
      px      :     0.017563
      py      :     0.029923

 25 H s       :     0.903495  s :     0.903495
      pz      :     0.013922  p :     0.064661
      px      :     0.036255
      py      :     0.014484

 26 H s       :     0.911412  s :     0.911412
      pz      :     0.037050  p :     0.067269
      px      :     0.017836
      py      :     0.012383

 27 H s       :     0.908571  s :     0.908571
      pz      :     0.013151  p :     0.066246
      px      :     0.017208
      py      :     0.035886

 28 H s       :     0.909722  s :     0.909722
      pz      :     0.024895  p :     0.066521
      px      :     0.013787
      py      :     0.027840

 29 H s       :     0.909596  s :     0.909596
      pz      :     0.036446  p :     0.066329
      px      :     0.017821
      py      :     0.012062

 30 H s       :     0.913176  s :     0.913176
      pz      :     0.012810  p :     0.066867
      px      :     0.018329
      py      :     0.035728



                      *****************************
                      * MAYER POPULATION ANALYSIS *
                      *****************************

  NA   - Mulliken gross atomic population
  ZA   - Total nuclear charge
  QA   - Mulliken gross atomic charge
  VA   - Mayer's total valence
  BVA  - Mayer's bonded valence
  FA   - Mayer's free valence

  ATOM       NA         ZA         QA         VA         BVA        FA
  0 C      6.0240     6.0000    -0.0240     3.8550     3.8550    -0.0000
  1 C      5.9787     6.0000     0.0213     3.8376     3.8376    -0.0000
  2 C      5.9858     6.0000     0.0142     3.8355     3.8355    -0.0000
  3 C      5.9659     6.0000     0.0341     3.8466     3.8466    -0.0000
  4 C      5.9850     6.0000     0.0150     3.8603     3.8603    -0.0000
  5 C      6.0200     6.0000    -0.0200     3.9754     3.9754     0.0000
  6 C      5.8795     6.0000     0.1205     3.9595     3.9595    -0.0000
  7 C      6.0018     6.0000    -0.0018     4.1015     4.1015    -0.0000
  8 C      5.8755     6.0000     0.1245     3.9708     3.9708     0.0000
  9 C      6.0285     6.0000    -0.0285     3.9595     3.9595     0.0000
 10 C      5.9833     6.0000     0.0167     3.8498     3.8498    -0.0000
 11 C      5.9693     6.0000     0.0307     3.8587     3.8587     0.0000
 12 C      5.9801     6.0000     0.0199     3.8349     3.8349    -0.0000
 13 C      5.9789     6.0000     0.0211     3.8310     3.8310    -0.0000
 14 C      6.0252     6.0000    -0.0252     3.8642     3.8642    -0.0000
 15 H      1.0349     1.0000    -0.0349     0.9842     0.9842    -0.0000
 16 H      1.0254     1.0000    -0.0254     0.9759     0.9759    -0.0000
 17 H      1.0243     1.0000    -0.0243     0.9767     0.9767     0.0000
 18 H      1.0252     1.0000    -0.0252     0.9793     0.9793    -0.0000
 19 H      1.0349     1.0000    -0.0349     0.9940     0.9940    -0.0000
 20 H      1.0179     1.0000    -0.0179     0.9902     0.9902    -0.0000
 21 H      0.9988     1.0000     0.0012     0.9790     0.9790    -0.0000
 22 H      1.0037     1.0000    -0.0037     0.9750     0.9750    -0.0000
 23 H      0.9998     1.0000     0.0002     0.9891     0.9891     0.0000
 24 H      1.0195     1.0000    -0.0195     0.9881     0.9881     0.0000
 25 H      0.9916     1.0000     0.0084     0.9782     0.9782    -0.0000
 26 H      1.0338     1.0000    -0.0338     0.9884     0.9884    -0.0000
 27 H      1.0233     1.0000    -0.0233     0.9787     0.9787     0.0000
 28 H      1.0233     1.0000    -0.0233     0.9770     0.9770    -0.0000
 29 H      1.0251     1.0000    -0.0251     0.9760     0.9760    -0.0000
 30 H      1.0367     1.0000    -0.0367     0.9849     0.9849    -0.0000

  Mayer bond orders larger than 0.100000
B(  0-C ,  1-C ) :   1.3862 B(  0-C ,  5-C ) :   1.3805 B(  0-C , 15-H ) :   0.9820 
B(  1-C ,  2-C ) :   1.3755 B(  1-C , 16-H ) :   0.9830 B(  2-C ,  3-C ) :   1.3837 
B(  2-C , 17-H ) :   0.9852 B(  3-C ,  4-C ) :   1.3846 B(  3-C , 18-H ) :   0.9799 
B(  4-C ,  5-C ) :   1.3995 B(  4-C , 19-H ) :   0.9765 B(  5-C ,  6-C ) :   1.0489 
B(  6-C ,  7-C ) :   1.0762 B(  6-C , 20-H ) :   0.9241 B(  6-C , 21-H ) :   0.9175 
B(  7-C ,  8-C ) :   1.0912 B(  7-C , 22-H ) :   0.9299 B(  7-C , 23-H ) :   0.9383 
B(  8-C ,  9-C ) :   1.0478 B(  8-C , 24-H ) :   0.9215 B(  8-C , 25-H ) :   0.9154 
B(  9-C , 10-C ) :   1.3733 B(  9-C , 14-C ) :   1.4014 B( 10-C , 11-C ) :   1.4047 
B( 10-C , 26-H ) :   0.9827 B( 11-C , 12-C ) :   1.3686 B( 11-C , 27-H ) :   0.9812 
B( 12-C , 13-C ) :   1.3898 B( 12-C , 28-H ) :   0.9852 B( 13-C , 14-C ) :   1.3667 
B( 13-C , 29-H ) :   0.9829 B( 14-C , 30-H ) :   0.9816 

-------
TIMINGS
-------

Total SCF time: 0 days 0 hours 0 min 55 sec 

Total time                  ....      55.165 sec
Sum of individual times     ....      54.412 sec  ( 98.6%)

SCF preparation             ....       0.083 sec  (  0.1%)
Fock matrix formation       ....      54.224 sec  ( 98.3%)
  Startup                   ....       0.002 sec  (  0.0% of F)
  Split-RI-J                ....       3.532 sec  (  6.5% of F)
  Chain of spheres X        ....      46.025 sec  ( 84.9% of F)
  XC integration            ....       5.331 sec  (  9.8% of F)
    Basis function eval.    ....       1.991 sec  ( 37.3% of XC)
    Density eval.           ....       1.582 sec  ( 29.7% of XC)
    XC-Functional eval.     ....       0.203 sec  (  3.8% of XC)
    XC-Potential eval.      ....       1.431 sec  ( 26.8% of XC)
Diagonalization             ....       0.000 sec  (  0.0%)
Density matrix formation    ....       0.005 sec  (  0.0%)
Total Energy calculation    ....       0.002 sec  (  0.0%)
Population analysis         ....       0.026 sec  (  0.0%)
Orbital Transformation      ....       0.014 sec  (  0.0%)
Orbital Orthonormalization  ....       0.000 sec  (  0.0%)
DIIS solution               ....       0.017 sec  (  0.0%)
SOSCF solution              ....       0.041 sec  (  0.1%)
Finished LeanSCF after  55.2 sec

Maximum memory used throughout the entire LEANSCF-calculation: 43.1 MB


-------------------------------------------------------------------------------
                          DFT DISPERSION CORRECTION                            
                                                                               
                              DFTD3 V3.1  Rev 1                                
                          USING Becke-Johnson damping                          
-------------------------------------------------------------------------------
The B3LYP functional is recognized
Active option DFTDOPT                   ...         4   

molecular C6(AA) [au] = 10239.211175 


            DFT-D V3
 parameters
 s6 scaling factor         :     1.0000 
 a1 scaling factor         :     0.3981 
 s8 scaling factor         :     1.9889 
 a2 scaling factor         :     4.4211 
 ad hoc parameters k1-k3   :    16.0000     1.3333    -4.0000 

 Edisp/kcal,au: -43.880632406777  -0.069928231429 
 E6   /kcal   : -20.814381881 
 E8   /kcal   : -23.066250526 
 % E8         :  52.565902678 

-------------------------   ----------------
Dispersion correction           -0.069928231
-------------------------   ----------------


-------------------------   --------------------
FINAL SINGLE POINT ENERGY      -580.503332114594
-------------------------   --------------------

                                *** OPTIMIZATION RUN DONE ***


------------------------------------------------------------------------------
                              ORCA PROPERTY CALCULATIONS
------------------------------------------------------------------------------

GBWName                                 ... global_minimum_d3bj.gbw
Number of atoms                         ...     31
Number of basis functions               ...    290
Max core memory                         ...   4096 MB

Electric properties:
Dipole moment                           ... YES
Quadrupole moment                       ...  NO
Static polarizability (Dipole/Dipole)   ...  NO
Static polarizability (Dipole/Quad.)    ...  NO
Static polarizability (Quad./Quad.)     ...  NO
Static polarizability (Velocity)        ...  NO
Static hyperpolarizability              ...  NO

Atomic electric properties:
Dipole moment                           ...  NO
Quadrupole moment                       ...  NO
Static polarizability                   ...  NO

Choice of electric origin               ... Center of mass
Position of electric origin             ...     3.146113     3.224156    -3.588537

General magnetic properties:
Magnetizability                         ...  NO

EPR properties:
g-Tensor (aka g-matrix)                 ...  NO
Zero-Field splitting spin-orbit         ...  NO
Zero-field splitting spin-spin          ...  NO
Hyperfine couplings                     ...  NO (   0 nuclei)
Quadrupole couplings                    ...  NO (   0 nuclei)
Contact density                         ...  NO (   0 nuclei)

NMR properties:
Chemical shifts                         ...  NO (   0 nuclei)
Spin-rotation constants                 ...  NO (   0 nuclei)
Spin-spin couplings                     ...  NO (   0 nuclei,    0 pairs)

Choice of magnetic origin               ... GIAO
Position of magnetic origin             ...     0.000000     0.000000     0.000000

Properties with geometric perturbations:
SCF Hessian                             ...  NO
IR spectrum                             ...  NO
VCD spectrum                            ...  NO
X-ray spectroscopy properties:
SCF XES/XAS/RIXS spectra                ...  NO

SCF SOC stabilization energy            ...  NO
Diagonal Born-Oppenheimer correction    ...  NO

-------------
DIPOLE MOMENT
-------------

Method             : SCF
Type of density    : Electron Density
Multiplicity       :   1
Irrep              :   0
Energy             :  -580.4334038831656244 Eh
Basis              : AO
                                X                 Y                 Z
Electronic contribution:     -0.526788286      -3.982217194      -2.936469282
Nuclear contribution   :      0.581607676       4.137640655       3.058045465
                        -----------------------------------------
Total Dipole Moment    :      0.054819389       0.155423460       0.121576183
                        -----------------------------------------
Magnitude (a.u.)       :      0.204798402
Magnitude (Debye)      :      0.520556169



--------------------
Rotational spectrum 
--------------------
 
Rotational constants in cm-1:             0.026325             0.022089             0.015358 
Rotational constants in MHz :           789.193582           662.210371           460.429290 

Dipole components along the rotational axes: 
x,y,z [a.u.] :    -0.028582     0.199856     0.034396 
x,y,z [Debye]:    -0.072649     0.507993     0.087429 

 

Dipole moment calculation done in   0.0 sec 

Maximum memory used throughout the entire PROP-calculation: 21.9 MB

--------------------------------
SUGGESTED CITATIONS FOR THIS RUN
--------------------------------

Below you find a list of papers that are relevant to this ORCA run
We neither can nor want to force you to cite these papers, but we appreciate if you do
You receive ORCA, which is the product of decades of hard work by many enthusiastic individuals, for free
The only thing we kindly ask in return is that you cite our papers,
We deeply appreciate it, if you show your appreciation for ORCA by not just citing the generic ORCA reference.

Please note that relegating all ORCA citations to the supporting information does *not* help us.
SI sections are not indexed - citations you put there will not count into any citation statistics
But we need these citations in order to attract the funding resources that allow us to do what we are doing

Therefore, if you are a happy ORCA user, please consider citing a few of the papers listed below in the main body of your paper

In addition to the list printed below, the program has created the file global_minimum_d3bj.bibtex that contains the list in bibtex format
You can import this file easily into all common literature databanks and citation aid programs

It goes without saying that in many instances, there are alternative algorithms to achieve similar
results as the ones you have gotten from ORCA. It is, of course, also the case that in some instances
ORCA just re-implements algorithms worked out by others. We are fully aware of that and we are also
fully appreciative of our colleagues work. Hence this citation list should not be read as indicating
that the listed papers, which are focused on our own work, are the only ones worth citing. It simply
meant to make it easier for users to cite ORCA specific papers. It is not a substitute for doing your
own literature research and citing the relevant literature in a scientifically appropriate manner.

List of essential papers. We consider these as the minimum necessary citations

  1. Neese, F.
     Software update: the ORCA program system, version 6.0
     WIRES Comput. Molec. Sci. 2025 15(1), e70019
     doi.org/10.1002/wcms.70019

List of papers to cite with high priority. The work reported in these papers was absolutely
necessary for this run to complete.
Our perspective: the developers of density functionals and basis sets usually get cited in chemistry papers
Good! But without the algorithms to do something with them, the functionals or basis sets would not do anything.
Hence, in our opinion, the algorithm design and method developments papers are equally worthy of getting cited

  1. Neese, F.
     An improvement of the resolution of the identity approximation for the formation of the Coulomb matrix
     J. Comp. Chem. 2003 24(14), 1740-1747
     doi.org/10.1002/jcc.10318
  2. Neese, F.; Wennmohs, F.; Hansen, A.; Becker, U.
     Efficient, approximate and parallel Hartree-Fock and hybrid DFT calculations. A 'chain-of-spheres' algorithm for the Hartree-Fock exchange
     Chem. Phys. 2009 356(1-3), 98-109
     doi.org/10.1016/j.chemphys.2008.10.036
  3. Grimme, S.; Antony, J.; Ehrlich, S.; Krieg, H.
     A consistent and accurate ab initio parametrization of density functional dispersion correction (DFT-D) for the 94 elements H-Pu
     J. Chem. Phys. 2010 132 , 154104
     doi.org/10.1063/1.3382344
  4. Grimme, S.; Ehrlich, S.; Goerigk, L.
     Effect of the damping function in dispersion corrected density functional theory
     J. Comput. Chem. 2011 32(7), 1456-1465
     doi.org/10.1002/jcc.21759
  5. Helmich-Paris, B.; de Souza, B.; Neese, F.; Izsák, R.
     An improved chain of spheres for exchange algorithm
     J. Chem. Phys. 2021 155(10), 104109
     doi.org/10.1063/5.0058766
  6. Neese, F.
     The SHARK Integral Generation and Digestion System
     J. Comp. Chem. 2022 44(3), 381
     doi.org/10.1002/jcc.26942

List of suggested additional citations. These are papers that are important in the 'surrounding' of 
of this run, or papers that preceded the highly important papers. If you like your results we are grateful for a citation.

  1. Izsak, R.; Neese, F.
     An overlap fitted chain of spheres exchange method
     J. Chem. Phys. 2011 135 , 144105
     doi.org/10.1063/1.3646921
  2. Izsak, R.; Hansen, A.; Neese, F.
     The resolution of identity and chain of spheres approximations for the LPNO-CCSD singles Fock term
     Molec. Phys. 2012 110 , 2413-2417
     doi.org/10.1080/00268976.2012.687466
  3. Neese, F.
     The ORCA program system
     WIRES Comput. Molec. Sci. 2012 2(1), 73-78
     doi.org/10.1002/wcms.81
  4. Izsak, R.; Neese, F.; Klopper, W.
     Robust fitting techniques in the chain of spheres approximation to the Fock exchange: The role of the complementary space
     J. Chem. Phys. 2013 139 , 
     doi.org/10.1063/1.4819264
  5. Neese, F.
     Software update: the ORCA program system, version 4.0
     WIRES Comput. Molec. Sci. 2018 8(1), 1-6
     doi.org/10.1002/wcms.1327
  6. Neese, F.; Wennmohs, F.; Becker, U.; Riplinger, C.
     The ORCA quantum chemistry program package
     J. Chem. Phys. 2020 152(22), 224108
     doi.org/10.1063/5.0004608
  7. Neese, F.
     Software update: The ORCA program system—Version 5.0
     WIRES Comput. Molec. Sci. 2022 12(1), e1606
     doi.org/10.1002/wcms.1606

List of optional additional citations

  1. Neese, F.
     Approximate second-order SCF convergence for spin unrestricted wavefunctions
     Chem. Phys. Lett. 2000 325(1-3), 93-98
     doi.org/10.1016/s0009-2614(00)00662-x

Timings for individual modules:

Sum of individual times          ...     1524.570 sec (=  25.410 min)
Startup calculation              ...       31.950 sec (=   0.533 min)   2.1 %
SCF iterations                   ...      852.683 sec (=  14.211 min)  55.9 %
Property calculations            ...        0.075 sec (=   0.001 min)   0.0 %
SCF Gradient evaluation          ...      639.785 sec (=  10.663 min)  42.0 %
Geometry relaxation              ...        0.077 sec (=   0.001 min)   0.0 %
                             ****ORCA TERMINATED NORMALLY****
TOTAL RUN TIME: 0 days 0 hours 25 minutes 25 seconds 356 msec
