
                                 *****************
                                 * O   R   C   A *
                                 *****************

                                            #,                                       
                                            ###                                      
                                            ####                                     
                                            #####                                    
                                            ######                                   
                                           ########,                                 
                                     ,,################,,,,,                         
                               ,,#################################,,                 
                          ,,##########################################,,             
                       ,#########################################, ''#####,          
                    ,#############################################,,   '####,        
                  ,##################################################,,,,####,       
                ,###########''''           ''''###############################       
              ,#####''   ,,,,##########,,,,          '''####'''          '####       
            ,##' ,,,,###########################,,,                        '##       
           ' ,,###''''                  '''############,,,                           
         ,,##''                                '''############,,,,        ,,,,,,###''
      ,#''                                            '''#######################'''  
     '                                                          ''''####''''         
             ,#######,   #######,   ,#######,      ##                                
            ,#'     '#,  ##    ##  ,#'     '#,    #''#        ,####,    ,#,          
            ##       ##  ##   ,#'  ##            #'  '#       #'       ,# #          
            ##       ##  #######   ##           ,######,      #####,      #          
            '#,     ,#'  ##    ##  '#,     ,#' ,#      #,     #,   #      #          
             '#######'   ##     ##  '#######'  #'      '#     '####' #    #          



                #########################################################
                #                        -***-                          #
                #          Department of theory and spectroscopy        #
                #                                                       #
                #                      Frank Neese                      #
                #                                                       #
                #     Directorship, Architecture, Infrastructure        #
                #                    SHARK, DRIVERS                     #
                #        Core code/Algorithms in most modules           #
                #                                                       #
                #        Max Planck Institute fuer Kohlenforschung      #
                #                Kaiser Wilhelm Platz 1                 #
                #                 D-45470 Muelheim/Ruhr                 #
                #                      Germany                          #
                #                                                       #
                #                  All rights reserved                  #
                #                        -***-                          #
                #########################################################


                         Program Version 6.1.1  -  RELEASE   -
                                (GIT: $487d211c$)
                          ($2025-11-21 10:33:24 +0100$)


 With contributions from (in alphabetic order):
[Max-Planck-Institut fuer Kohlenforschung]                               
  Daniel Aravena         : Magnetic Suceptibility                        
  Michael Atanasov       : Ab Initio Ligand Field Theory (pilot matlab implementation)
  Alexander A. Auer      : GIAO ZORA, VPT2 properties, NMR spectrum      
  Ute Becker             : All parallelization in ORCA, NUMFREQ, NUMCALC 
  Giovanni Bistoni       : ED, misc. LED, open-shell LED, HFLD           
  Dmytro Bykov           : pre 5.0 version of the SCF Hessian            
  Marcos Casanova-Páez   : Triplet and SCS-CIS(D). UHF-(DLPNO)-IP/EA/STEOM-CCSD. UHF-CVS-IP/STEOM-CCSD   
  Vijay G. Chilkuri      : MRCI spin determinant printing, contributions to CSF-ICE 
  Pauline Colinet        : FMM embedding                                 
  Dipayan Datta          : RHF DLPNO-CCSD density                        
  Achintya Kumar Dutta   : EOM-CC, STEOM-CC                              
  Nicolas Foglia         : Exact transition moments, OPA infrastructure, MCD improvements    
  Dmitry Ganyushin       : Spin-Orbit,Spin-Spin,Magnetic field MRCI      
  Miquel Garcia-Rates    : C-PCM and meta-GGA Hessian, CCSD/C-PCM, Gaussian charge scheme 
  Tiago L. C. Gouveia    : GS-ROHF, GS-ROCIS                             
  Yang Guo               : DLPNO-NEVPT2, F12-NEVPT2, CIM, IAO-localization        
  Andreas Hansen         : Spin unrestricted coupled pair/coupled cluster methods 
  Ingolf Harden          : AUTO-CI MPn and infrastructure                
  Benjamin Helmich-Paris : MC-RPA, TRAH-(SCF,CASSCF), AVAS, COSX integrals, SCF dyn. polar., MC-PDFT, srDFT 
  Lee Huntington         : MR-EOM, pCC                                   
  Robert Izsak           : Overlap fitted RIJCOSX, COSX-SCS-MP3, EOM     
  Riya Kayal             : Wick's Theorem for AUTO-CI, AUTO-CI UHF-CCSDT 
  Emily Kempfer          : AUTO-CI RHF CISDT and CCSDT, approximate NEVPT4
  Christian Kollmar      : KDIIS, OOCD, Brueckner-CCSD(T), CCSD density, CASPT2, CASPT2-K, improved NEVPT2 
  Axel Koslowski         : Symmetry handling                             
  Simone Kossmann        : meta-GGA functionals, TD-DFT gradient, OOMP2, (MP2 Hessian; deprecated post 5.0) 
  Lucas Lang             : DCDCAS, Hyperfine gauge corrections, ICE-SOC+SSC
  Marvin Lechner         : AUTO-CI (C++ implementation), FIC-MRCC        
  Spencer Leger          : CASSCF response                               
  Dagmar Lenk            : GEPOL surface, SMD, ORCA-2-JSON               
  Dimitrios Liakos       : Extrapolation schemes; Compound Job, Property file
  Dimitrios Manganas     : Further ROCIS development; embedding schemes. LFT, Crystal Embedding 
  Dimitrios Pantazis     : SARC Basis sets                               
  Anastasios Papadopoulos: AUTO-CI, single reference methods and gradients 
  Taras Petrenko         : pre 6.0 DFT Hessian and TD-DFT gradient,  ECA, NRVS 
  Petra Pikulova         : Analytic Raman intensities                    
  Peter Pinski           : DLPNO-MP2, DLPNO-MP2 Gradient                 
  Shashank Vittal Rao    : ES-AILFT, MagRelax                            
  Christoph Reimann      : Effective Core Potentials                     
  Marius Retegan         : Local ZFS, SOC                                
  Christoph Riplinger    : Optimizer, TS searches, QM/MM, DLPNO-CCSD(T), (RO)-DLPNO pert. Triples 
  Michael Roemelt        : Original ROCIS implementation, recursive CI coupling coefficients
  Masaaki Saitow         : Open-shell DLPNO-CCSD energy and density      
  Barbara Sandhoefer     : DKH picture change effects                    
  Yorick L. A. Schmerwitz: GMF and freeze-and-release deltaSCF, NEB S-IDPP initial path                    
  Kantharuban Sivalingam : CASSCF convergence/infrastructure, NEVPT2, NEVPT3, NEVPT4(SD), FIC-MRCI and CEPA variants
  Bernardo de Souza      : ESD, SOC TD-DFT                               
  Georgi L. Stoychev     : AutoAux, RI-MP2 NMR, DLPNO-MP2 response, X2C  
  Van Anh Tran           : RI-MP2 g-tensors                              
  Willem Van den Heuvel  : Paramagnetic NMR                              
  Zikuan Wang            : NOTCH, Electric field optimization            
  Frank Wennmohs         : Technical directorship and infrastructure     
  Hang Xu                : AUTO-CI-Response properties                   
                                                                         
[FACCTs GmbH]                                                            
  Markus Bursch, Nicolas Foglia, Miquel Garcia-Rates, Ingolf Harden, Hagen Neugebauer, Anastasios Papadopoulos, 
  Christoph Riplinger, Bernardo de Souza, Georgi L. Stoychev                                                    
                                                                 
  APM, various basis sets, CI-OPT, improved COSX, DLPNO-Multilevel,           
  DOCKER, DRACO, updates on ESD, Fragmentator, GOAT, IRC, LR-CPCM, L-BFGS, MBIS, meta-GGA TD-DFT gradient, ML-optimized integration grids, 
  MM, NACMEs, nearIR, NEB, NEB-TS, NL-DFT gradient (VV10), 2- and 3-layer-ONIOM, interface openCOSMO-RS, QMMM,   
  Crystal-QMMM, RESP, rigid body optimization, SF, symmetry and pop. for TD-DFT, various functionals, SOLVATOR                                   
                                                                         
[Other institutions]                                                     
  V. Asgeirsson          : NEB                                           
  Christoph Bannwarth    : sTDA-DFT, sTD-DFT, PBEh-3c, B97-3c, D3        
  Giovanni Bistoni       : ETS/NOCV, ADLD/ADEX, COVALED                  
  Martin Brehm           : Molecular dynamics                            
  Ronald Cardenas        : ETS/NOCV                                      
  Martina Colucci        : COVALED                                       
  Sebastian Ehlert       : rSCAN, r2SCAN, r2SCAN-3c, D4, dhf basis sets  
  Marvin Friede          : D4 for Fr, Ra, Ac-Lr                          
  Lars Goerigk           : TD-DFT with DH, B97 family of functionals     
  Stefan Grimme          : VdW corrections, initial TS optimization, DFT functionals, gCP, sTDA/sTD-DF 
  Waldemar Hujo          : DFT-NL                                        
  H. Jonsson             : NEB                                           
  Holger Kruse           : gCP                                           
  Marcel Mueller         : wB97X-3c, vDZP basis set                      
  Hagen Neugebauer       : wr2SCAN, Native XTB                           
  Gianluca Regni         : ADLD/ADEX                                     
  Tobias Risthaus        : pre 6.0 range-separated hybrid DFT and stability analysis
  Lukas Wittmann         : regularized MP2, r2SCAN double-hybrids, wr2SCAN        
                                                                         
We gratefully acknowledge several colleagues who have allowed us to      
interface, adapt or use parts of their codes:                            
  Ed Valeev, F. Pavosevic, A. Kumar             : LibInt (2-el integral package), F12 methods 
  Garnet Chan, S. Sharma, J. Yang, R. Olivares  : DMRG                   
  Ulf Ekstrom                                   : XCFun DFT Library      
  Mihaly Kallay                                 : mrcc  (arbitrary order and MRCC methods)
  Frank Weinhold                                : gennbo (NPA and NBO analysis)           
  Simon Mueller                                 : openCOSMO-RS                            
  Christopher J. Cramer and Donald G. Truhlar   : smd solvation model                     
  S Lehtola, MJT Oliveira, MAL Marques          : LibXC Library                           
  Liviu Ungur et al                             : ANISO software                          


 Your calculation uses the libint2 library for the computation of 2-el integrals
 For citations please refer to: http://libint.valeyev.net

 Your ORCA version has been built with support for libXC version: 7.0.0
 For citations please refer to: https://libxc.gitlab.io

 This ORCA versions uses:
   CBLAS   interface :  Fast vector & matrix operations
   LAPACKE interface :  Fast linear algebra routines
   SCALAPACK package :  Parallel linear algebra routines
   Shared memory     :  Shared parallel matrices
   BLAS/LAPACK       :  OpenBLAS 0.3.29  USE64BITINT DYNAMIC_ARCH NO_AFFINITY Haswell SINGLE_THREADED
        Core in use  :  Haswell
   Copyright (c) 2011-2014, The OpenBLAS Project


  ***********************************
  * Starting time: Sun Jan 11 02:31:53 2026
  * Host name:     Maks
  * Process ID:    63306
  * Working dir.:  /home/maksy/Chemia_obliczeniowa/Cwiczenia4
  ***********************************

Warning: RI is on but no J-basis has been assigned. Assigning Def2/J (nothing to worry about!)
================================================================================

----- Orbital basis set information -----
Your calculation utilizes the basis: def2-SVP
   F. Weigend and R. Ahlrichs, Phys. Chem. Chem. Phys. 7, 3297 (2005).

----- AuxJ basis set information -----
Your calculation utilizes the auxiliary basis: def2/J
   H-Rn: F. Weigend, Phys. Chem. Chem. Phys. 8, 1057 (2006).
   Fr-Lr: K. Eichkorn, F. Weigend, O. Treutler, R. Ahlrichs; Theor. Chem. Acc. 97, 119 (1997).

================================================================================
                                        WARNINGS
                       Please study these warnings very carefully!
================================================================================


WARNING: Geometry Optimization
  ===> : Switching off AutoStart
         For restart on a previous wavefunction, please use MOREAD

================================================================================
                                       INPUT FILE
================================================================================
NAME = local_minimum.inp
|  1> ! B3LYP def2-SVP Opt
|  2> * xyz 0 1
|  3> C  -0.68434685772197778597 1.03929538655723385787 1.18282041095641510253
|  4> C  -1.88118826364013069785 0.37854913321462291265 1.38190407077970300875
|  5> C  -2.47851110199498236852 -0.30350086439255452575 0.33483697491932540302
|  6> C  -1.86533016685165997650 -0.31613286659599948436 -0.90419915334097955562
|  7> C  -0.66451131692954734653 0.34651425736724017490 -1.10038417715186298551
|  8> C  -0.05651385719651824679 1.03469675901398394657 -0.06011544153366976673
|  9> C  1.25185318972282955130 1.77014294212851486243 -0.20025323217460244685
| 10> C  1.80562993213534128678 1.87384397671515312567 -1.61918100958468702544
| 11> C  3.09348433997424798747 2.69323939363124598145 -1.63262895143914077423
| 12> C  3.73120373542217542706 2.89082560764192830760 -2.98424785176922879870
| 13> C  4.87517404125788900160 3.68125946280599869453 -3.06168224185667403603
| 14> C  5.51218226010358502975 3.90119314601004418819 -4.26757554634146707428
| 15> C  5.01429886177706762851 3.33183776812139598178 -5.42797183265353044845
| 16> C  3.87931178725834335808 2.54510863949393240091 -5.36480015213285099662
| 17> C  3.24291858848602965182 2.32593977834452125819 -4.15366699225480928703
| 18> H  -0.22348849885341159904 1.57049763649283380396 2.00437795823682751717
| 19> H  -2.35031975034775175715 0.39625842316775750085 2.35503849100243201065
| 20> H  -3.41475702882098364199 -0.82049728084095896463 0.48505672048834513888
| 21> H  -2.32302278204961165642 -0.84552341871697622722 -1.72758161702033419260
| 22> H  -0.20811122975172113847 0.31907081847519225271 -2.07743399702363973347
| 23> H  1.11903324644164481327 2.77896315840010865728 0.20339407074950965892
| 24> H  1.99226831209777421883 1.27097067336284652583 0.43426084562654621024
| 25> H  2.01200608172309802768 0.87255156234220565548 -2.00172787015025344104
| 26> H  1.06371445519468776908 2.35211084871678810515 -2.26206018467473590761
| 27> H  2.89079631964737648886 3.68068385455825364261 -1.20537562285996679989
| 28> H  3.82737711924345180847 2.21066870727962072607 -0.97828024036932115237
| 29> H  5.26848536430926994711 4.12865862309587683399 -2.15908602565248175509
| 30> H  6.39841399115726616742 4.51819210727624920310 -4.30350859856559964101
| 31> H  5.50828901578284568785 3.50127437119783380126 -6.37331402444864192347
| 32> H  3.48278849155078518152 2.09645129616790759641 -6.26434192027244662881
| 33> H  2.35916572087252696122 1.70767809896724220842 -4.13439285948810031357
| 34> *
| 35> 
| 36>                          ****END OF INPUT****
================================================================================

                       *****************************
                       * Geometry Optimization Run *
                       *****************************

Geometry optimization settings:
Update method            Update   .... BFGS
Choice of coordinates    CoordSys .... (2022) Redundant Internals
Initial Hessian          InHess   .... Almloef's Model
Max. no of cycles        MaxIter  .... 93

Convergence Tolerances:
Energy Change            TolE     ....  5.0000e-06 Eh
Max. Gradient            TolMAXG  ....  3.0000e-04 Eh/bohr
RMS Gradient             TolRMSG  ....  1.0000e-04 Eh/bohr
Max. Displacement        TolMAXD  ....  4.0000e-03 bohr
RMS Displacement         TolRMSD  ....  2.0000e-03 bohr
Strict Convergence                .... False

------------------------------------------------------------------------------
                        ORCA OPTIMIZATION COORDINATE SETUP
------------------------------------------------------------------------------

The optimization will be done in redundant internal coordinates (2022)
Making redundant internal coordinates   ...  (2022 redundants) done
Evaluating the initial hessian          ...  (Almloef) done
Evaluating the coordinates              ...  done
Calculating the B-matrix                .... done
Calculating the G-matrix                .... done
The number of degrees of freedom        ....  156

    -----------------------------------------------------------------
                    Redundant Internal Coordinates


    -----------------------------------------------------------------
         Definition                    Initial Value    Approx d2E/dq
    -----------------------------------------------------------------
      1. B(C   1,C   0)                  1.3815         0.644522   
      2. B(C   2,C   1)                  1.3850         0.636285   
      3. B(C   3,C   2)                  1.3825         0.642204   
      4. B(C   4,C   3)                  1.3855         0.635257   
      5. B(C   5,C   4)                  1.3876         0.630345   
      6. B(C   5,C   0)                  1.3925         0.619061   
      7. B(C   6,C   5)                  1.5074         0.405870   
      8. B(C   7,C   6)                  1.5267         0.378147   
      9. B(C   8,C   7)                  1.5265         0.378429   
     10. B(C   9,C   8)                  1.5075         0.405744   
     11. B(C  10,C   9)                  1.3926         0.618763   
     12. B(C  11,C  10)                  1.3814         0.644797   
     13. B(C  12,C  11)                  1.3851         0.636085   
     14. B(C  13,C  12)                  1.3824         0.642402   
     15. B(C  14,C   9)                  1.3875         0.630642   
     16. B(C  14,C  13)                  1.3856         0.634988   
     17. B(H  15,C   0)                  1.0814         0.371597   
     18. B(H  16,C   1)                  1.0805         0.372947   
     19. B(H  17,C   2)                  1.0800         0.373570   
     20. B(H  18,C   3)                  1.0806         0.372753   
     21. B(H  19,C   4)                  1.0787         0.375308   
     22. B(H  20,C   6)                  1.0947         0.353982   
     23. B(H  21,C   6)                  1.0954         0.352971   
     24. B(H  22,C   7)                  1.0916         0.358032   
     25. B(H  23,C   7)                  1.0920         0.357459   
     26. B(H  24,C   8)                  1.0948         0.353754   
     27. B(H  25,C   8)                  1.0953         0.353178   
     28. B(H  26,C  10)                  1.0815         0.371587   
     29. B(H  27,C  11)                  1.0805         0.372949   
     30. B(H  28,C  12)                  1.0800         0.373570   
     31. B(H  29,C  13)                  1.0806         0.372750   
     32. B(H  30,C  14)                  1.0787         0.375335   
     33. A(C   1,C   0,C   5)          121.1736         0.436990   
     34. A(C   5,C   0,H  15)          119.1810         0.354702   
     35. A(C   1,C   0,H  15)          119.6453         0.357137   
     36. A(C   2,C   1,H  16)          120.1130         0.356577   
     37. A(C   0,C   1,H  16)          119.8743         0.357357   
     38. A(C   0,C   1,C   2)          120.0126         0.439158   
     39. A(C   3,C   2,H  17)          120.3161         0.357239   
     40. A(C   1,C   2,C   3)          119.3896         0.438872   
     41. A(C   1,C   2,H  17)          120.2943         0.356678   
     42. A(C   2,C   3,H  18)          119.9674         0.357106   
     43. A(C   2,C   3,C   4)          120.4605         0.438744   
     44. A(C   4,C   3,H  18)          119.5721         0.356447   
     45. A(C   3,C   4,H  19)          118.8672         0.356861   
     46. A(C   3,C   4,C   5)          120.7181         0.437272   
     47. A(C   5,C   4,H  19)          120.4148         0.356391   
     48. A(C   0,C   5,C   4)          118.2455         0.435242   
     49. A(C   4,C   5,C   6)          123.5440         0.403689   
     50. A(C   0,C   5,C   6)          118.2093         0.402405   
     51. A(C   7,C   6,H  20)          108.9126         0.324054   
     52. A(C   5,C   6,H  20)          108.0610         0.327849   
     53. A(C   5,C   6,C   7)          115.7454         0.369320   
     54. A(H  20,C   6,H  21)          106.7604         0.289150   
     55. A(C   7,C   6,H  21)          108.9127         0.323902   
     56. A(C   5,C   6,H  21)          108.0883         0.327694   
     57. A(C   6,C   7,C   8)          110.5286         0.364913   
     58. A(H  22,C   7,H  23)          108.8979         0.290241   
     59. A(C   8,C   7,H  23)          109.4458         0.324615   
     60. A(C   6,C   7,H  23)          109.2972         0.324575   
     61. A(C   8,C   7,H  22)          109.2564         0.324700   
     62. A(C   6,C   7,H  22)          109.3897         0.324660   
     63. A(C   7,C   8,C   9)          115.7949         0.369347   
     64. A(H  24,C   8,H  25)          106.7548         0.289148   
     65. A(C   7,C   8,H  25)          108.8769         0.323973   
     66. A(C   9,C   8,H  24)          108.0587         0.327797   
     67. A(C   7,C   8,H  24)          108.9355         0.324060   
     68. A(C   9,C   8,H  25)          108.0557         0.327709   
     69. A(C   8,C   9,C  10)          118.1470         0.402349   
     70. A(C  10,C   9,C  14)          118.2489         0.435241   
     71. A(C   8,C   9,C  14)          123.6039         0.403700   
     72. A(C   9,C  10,C  11)          121.1772         0.436985   
     73. A(C  11,C  10,H  26)          119.6694         0.357161   
     74. A(C   9,C  10,H  26)          119.1534         0.354671   
     75. A(C  10,C  11,C  12)          120.0075         0.439167   
     76. A(C  12,C  11,H  27)          120.1129         0.356558   
     77. A(C  10,C  11,H  27)          119.8797         0.357383   
     78. A(C  11,C  12,C  13)          119.3900         0.438872   
     79. A(C  13,C  12,H  28)          120.3184         0.357258   
     80. A(C  11,C  12,H  28)          120.2915         0.356659   
     81. A(C  14,C  13,H  29)          119.5657         0.356421   
     82. A(C  12,C  13,H  29)          119.9674         0.357125   
     83. A(C  12,C  13,C  14)          120.4669         0.438735   
     84. A(C  13,C  14,H  30)          118.8524         0.356840   
     85. A(C   9,C  14,H  30)          120.4380         0.356424   
     86. A(C   9,C  14,C  13)          120.7095         0.437276   
     87. D(C   2,C   1,C   0,C   5)     -0.0542         0.028890   
     88. D(H  16,C   1,C   0,C   5)   -179.9706         0.028890   
     89. D(H  16,C   1,C   0,H  15)      0.0452         0.028890   
     90. D(C   2,C   1,C   0,H  15)    179.9615         0.028890   
     91. D(C   3,C   2,C   1,H  16)    179.9853         0.028107   
     92. D(C   3,C   2,C   1,C   0)      0.0691         0.028107   
     93. D(H  17,C   2,C   1,H  16)     -0.0036         0.028107   
     94. D(H  17,C   2,C   1,C   0)   -179.9198         0.028107   
     95. D(H  18,C   3,C   2,H  17)     -0.0255         0.028668   
     96. D(H  18,C   3,C   2,C   1)    179.9856         0.028668   
     97. D(C   4,C   3,C   2,H  17)    179.9747         0.028668   
     98. D(C   4,C   3,C   2,C   1)     -0.0142         0.028668   
     99. D(H  19,C   4,C   3,C   2)    179.9424         0.028011   
    100. D(C   5,C   4,C   3,H  18)    179.9429         0.028011   
    101. D(C   5,C   4,C   3,C   2)     -0.0573         0.028011   
    102. D(H  19,C   4,C   3,H  18)     -0.0574         0.028011   
    103. D(C   6,C   5,C   4,H  19)     -0.3520         0.027551   
    104. D(C   6,C   5,C   4,C   3)    179.6476         0.027551   
    105. D(C   0,C   5,C   4,C   3)      0.0716         0.027551   
    106. D(C   6,C   5,C   0,H  15)      0.3691         0.026514   
    107. D(C   0,C   5,C   4,H  19)   -179.9280         0.027551   
    108. D(C   6,C   5,C   0,C   1)   -179.6152         0.026514   
    109. D(C   4,C   5,C   0,H  15)    179.9681         0.026514   
    110. D(C   4,C   5,C   0,C   1)     -0.0162         0.026514   
    111. D(H  21,C   6,C   5,C   0)     64.7346         0.012210   
    112. D(H  20,C   6,C   5,C   4)    129.9700         0.012210   
    113. D(H  20,C   6,C   5,C   0)    -50.4539         0.012210   
    114. D(C   7,C   6,C   5,C   4)      7.5748         0.012210   
    115. D(C   7,C   6,C   5,C   0)   -172.8490         0.012210   
    116. D(C   8,C   7,C   6,H  20)     55.4264         0.011403   
    117. D(C   8,C   7,C   6,C   5)    177.3689         0.011403   
    118. D(H  22,C   7,C   6,H  21)     59.6869         0.011403   
    119. D(H  22,C   7,C   6,H  20)    175.7660         0.011403   
    120. D(H  22,C   7,C   6,C   5)    -62.2915         0.011403   
    121. D(C   8,C   7,C   6,H  21)    -60.6528         0.011403   
    122. D(H  24,C   8,C   7,H  23)     63.4208         0.011419   
    123. D(H  24,C   8,C   7,H  22)   -177.4246         0.011419   
    124. D(H  24,C   8,C   7,C   6)    -57.0053         0.011419   
    125. D(C   9,C   8,C   7,H  23)    -58.5714         0.011419   
    126. D(C   9,C   8,C   7,H  22)     60.5832         0.011419   
    127. D(C   9,C   8,C   7,C   6)   -178.9974         0.011419   
    128. D(C  14,C   9,C   8,H  24)   -125.4612         0.012203   
    129. D(C  14,C   9,C   8,C   7)     -3.0037         0.012203   
    130. D(C  10,C   9,C   8,H  25)    -60.4593         0.012203   
    131. D(C  10,C   9,C   8,H  24)     54.7047         0.012203   
    132. D(C  10,C   9,C   8,C   7)    177.1622         0.012203   
    133. D(H  26,C  10,C   9,C  14)   -179.9919         0.026487   
    134. D(H  26,C  10,C   9,C   8)     -0.1487         0.026487   
    135. D(C  11,C  10,C   9,C  14)     -0.0086         0.026487   
    136. D(C  11,C  10,C   9,C   8)    179.8345         0.026487   
    137. D(H  27,C  11,C  10,H  26)     -0.0216         0.028916   
    138. D(H  27,C  11,C  10,C   9)    179.9953         0.028916   
    139. D(C  12,C  11,C  10,H  26)   -179.9858         0.028916   
    140. D(C  12,C  11,C  10,C   9)      0.0310         0.028916   
    141. D(H  28,C  12,C  11,H  27)     -0.0043         0.028088   
    142. D(H  28,C  12,C  11,C  10)    179.9599         0.028088   
    143. D(C  13,C  12,C  11,H  27)   -179.9916         0.028088   
    144. D(C  13,C  12,C  11,C  10)     -0.0274         0.028088   
    145. D(H  29,C  13,C  12,H  28)      0.0057         0.028687   
    146. D(H  29,C  13,C  12,C  11)    179.9930         0.028687   
    147. D(C  14,C  13,C  12,H  28)   -179.9853         0.028687   
    148. D(C  14,C  13,C  12,C  11)      0.0020         0.028687   
    149. D(C  13,C  14,C   9,C   8)   -179.8510         0.027579   
    150. D(H  30,C  14,C  13,H  29)      0.0105         0.027985   
    151. D(H  30,C  14,C  13,C  12)   -179.9985         0.027985   
    152. D(C   9,C  14,C  13,H  29)   -179.9705         0.027985   
    153. D(C   9,C  14,C  13,C  12)      0.0205         0.027985   
    154. D(H  30,C  14,C   9,C  10)   -179.9978         0.027579   
    155. D(H  30,C  14,C   9,C   8)      0.1683         0.027579   
    156. D(C  13,C  14,C   9,C  10)     -0.0171         0.027579   
    -----------------------------------------------------------------

Number of atoms                         .... 31
Number of degrees of freedom            .... 156


         *************************************************************
         *                GEOMETRY OPTIMIZATION CYCLE   1            *
         *************************************************************
---------------------------------
CARTESIAN COORDINATES (ANGSTROEM)
---------------------------------
  C     -0.684347    1.039295    1.182820
  C     -1.881188    0.378549    1.381904
  C     -2.478511   -0.303501    0.334837
  C     -1.865330   -0.316133   -0.904199
  C     -0.664511    0.346514   -1.100384
  C     -0.056514    1.034697   -0.060115
  C      1.251853    1.770143   -0.200253
  C      1.805630    1.873844   -1.619181
  C      3.093484    2.693239   -1.632629
  C      3.731204    2.890826   -2.984248
  C      4.875174    3.681259   -3.061682
  C      5.512182    3.901193   -4.267576
  C      5.014299    3.331838   -5.427972
  C      3.879312    2.545109   -5.364800
  C      3.242919    2.325940   -4.153667
  H     -0.223488    1.570498    2.004378
  H     -2.350320    0.396258    2.355038
  H     -3.414757   -0.820497    0.485057
  H     -2.323023   -0.845523   -1.727582
  H     -0.208111    0.319071   -2.077434
  H      1.119033    2.778963    0.203394
  H      1.992268    1.270971    0.434261
  H      2.012006    0.872552   -2.001728
  H      1.063714    2.352111   -2.262060
  H      2.890796    3.680684   -1.205376
  H      3.827377    2.210669   -0.978280
  H      5.268485    4.128659   -2.159086
  H      6.398414    4.518192   -4.303509
  H      5.508289    3.501274   -6.373314
  H      3.482788    2.096451   -6.264342
  H      2.359166    1.707678   -4.134393

----------------------------
CARTESIAN COORDINATES (A.U.)
----------------------------
  NO LB      ZA    FRAG     MASS         X           Y           Z
   0 C     6.0000    0    12.011   -1.293228    1.963984    2.235207
   1 C     6.0000    0    12.011   -3.554931    0.715354    2.611420
   2 C     6.0000    0    12.011   -4.683707   -0.573534    0.632750
   3 C     6.0000    0    12.011   -3.524963   -0.597405   -1.708689
   4 C     6.0000    0    12.011   -1.255744    0.654817   -2.079425
   5 C     6.0000    0    12.011   -0.106796    1.955294   -0.113602
   6 C     6.0000    0    12.011    2.365660    3.345085   -0.378424
   7 C     6.0000    0    12.011    3.412146    3.541052   -3.059809
   8 C     6.0000    0    12.011    5.845838    5.089485   -3.085222
   9 C     6.0000    0    12.011    7.050953    5.462869   -5.639411
  10 C     6.0000    0    12.011    9.212744    6.956572   -5.785741
  11 C     6.0000    0    12.011   10.416515    7.372187   -8.064549
  12 C     6.0000    0    12.011    9.475652    6.296261  -10.257380
  13 C     6.0000    0    12.011    7.330837    4.809558  -10.138003
  14 C     6.0000    0    12.011    6.128228    4.395389   -7.849293
  15 H     1.0000    0     1.008   -0.422332    2.967810    3.787725
  16 H     1.0000    0     1.008   -4.441461    0.748820    4.450378
  17 H     1.0000    0     1.008   -6.452956   -1.550515    0.916624
  18 H     1.0000    0     1.008   -4.389877   -1.597808   -3.264656
  19 H     1.0000    0     1.008   -0.393273    0.602956   -3.925781
  20 H     1.0000    0     1.008    2.114666    5.251479    0.384359
  21 H     1.0000    0     1.008    3.764841    2.401786    0.820634
  22 H     1.0000    0     1.008    3.802140    1.648883   -3.782717
  23 H     1.0000    0     1.008    2.010129    4.444845   -4.274674
  24 H     1.0000    0     1.008    5.462813    6.955484   -2.277830
  25 H     1.0000    0     1.008    7.232695    4.177558   -1.848682
  26 H     1.0000    0     1.008    9.955994    7.802034   -4.080081
  27 H     1.0000    0     1.008   12.091250    8.538146   -8.132453
  28 H     1.0000    0     1.008   10.409158    6.616450  -12.043818
  29 H     1.0000    0     1.008    6.581516    3.961719  -11.837891
  30 H     1.0000    0     1.008    4.458177    3.227044   -7.812870

--------------------------------
INTERNAL COORDINATES (ANGSTROEM)
--------------------------------
 C      0   0   0     0.000000000000     0.00000000     0.00000000
 C      1   0   0     1.381538731211     0.00000000     0.00000000
 C      2   1   0     1.385040171147   120.01263520     0.00000000
 C      3   2   1     1.382519784248   119.38962240     0.06914549
 C      4   3   2     1.385480308338   120.46052342     0.00000000
 C      5   4   3     1.387593279358   120.71808257   359.94274811
 C      6   5   4     1.507429606346   123.54396020   179.64763746
 C      7   6   5     1.526688777229   115.74539359     7.57484371
 C      8   7   6     1.526485726168   110.52862095   177.36887303
 C      9   8   7     1.507514507734   115.79485436   181.00255582
 C     10   9   8     1.392641312324   118.14696218   177.16219510
 C     11  10   9     1.381422801928   121.17719892   179.83453011
 C     12  11  10     1.385125613779   120.00746239     0.03103206
 C     13  12  11     1.382435908958   119.39003112   359.97256148
 C     14  13  12     1.385595476356   120.46687743     0.00000000
 H      1   2   3     1.081444894930   119.64534038   179.96150475
 H      2   1   3     1.080457574638   119.87432898   180.08366417
 H      3   2   1     1.080003565771   120.29430062   180.08021956
 H      4   3   2     1.080599633618   119.96742540   179.98561814
 H      5   4   3     1.078740252529   118.86716638   179.94240072
 H      7   6   5     1.094664565632   108.06102986   129.96998038
 H      7   6   5     1.095443116859   108.08831798   245.15841352
 H      8   7   6     1.091567549320   109.38966403   297.70848596
 H      8   7   6     1.092003392643   109.29721458    56.85401844
 H      9   8   7     1.094839898698   108.93550562   302.99473744
 H      9   8   7     1.095283211990   108.87691338    59.06020481
 H     11  10   9     1.081452604128   119.15339662   359.85127168
 H     12  11  10     1.080456192343   119.87967322   179.99527516
 H     13  12  11     1.080003191803   120.29154233   179.95989641
 H     14  13  12     1.080601466030   119.96740601   179.99302394
 H     15  14  13     1.078720597465   118.85244580   180.00152391

---------------------------
INTERNAL COORDINATES (A.U.)
---------------------------
 C      0   0   0     0.000000000000     0.00000000     0.00000000
 C      1   0   0     2.610729845393     0.00000000     0.00000000
 C      2   1   0     2.617346607946   120.01263520     0.00000000
 C      3   2   1     2.612583766957   119.38962240     0.06914549
 C      4   3   2     2.618178346700   120.46052342     0.00000000
 C      5   4   3     2.622171283256   120.71808257   359.94274811
 C      6   5   4     2.848629122158   123.54396020   179.64763746
 C      7   6   5     2.885023680694   115.74539359     7.57484371
 C      8   7   6     2.884639969797   110.52862095   177.36887303
 C      9   8   7     2.848789562529   115.79485436   181.00255582
 C     10   9   8     2.631710683077   118.14696218   177.16219510
 C     11  10   9     2.610510770798   121.17719892   179.83453011
 C     12  11  10     2.617508071122   120.00746239     0.03103206
 C     13  12  11     2.612425265628   119.39003112   359.97256148
 C     14  13  12     2.618395982712   120.46687743     0.00000000
 H      1   2   3     2.043634680344   119.64534038   179.96150475
 H      2   1   3     2.041768915387   119.87432898   180.08366417
 H      3   2   1     2.040910962965   120.29430062   180.08021956
 H      4   3   2     2.042037367955   119.96742540   179.98561814
 H      5   4   3     2.038523646916   118.86716638   179.94240072
 H      7   6   5     2.068616237552   108.06102986   129.96998038
 H      7   6   5     2.070087486153   108.08831798   245.15841352
 H      8   7   6     2.062763724890   109.38966403   297.70848596
 H      8   7   6     2.063587349407   109.29721458    56.85401844
 H      9   8   7     2.068947569030   108.93550562   302.99473744
 H      9   8   7     2.069785309744   108.87691338    59.06020481
 H     11  10   9     2.043649248617   119.15339662   359.85127168
 H     12  11  10     2.041766303227   119.87967322   179.99527516
 H     13  12  11     2.040910256269   120.29154233   179.95989641
 H     14  13  12     2.042040830711   119.96740601   179.99302394
 H     15  14  13     2.038486504229   118.85244580   180.00152391

---------------------
BASIS SET INFORMATION
---------------------
There are 2 groups of distinct atoms

 Group   1 Type C   : 7s4p1d contracted to 3s2p1d pattern {511/31/1}
 Group   2 Type H   : 4s1p contracted to 2s1p pattern {31/1}

Atom   0C    basis set group =>   1
Atom   1C    basis set group =>   1
Atom   2C    basis set group =>   1
Atom   3C    basis set group =>   1
Atom   4C    basis set group =>   1
Atom   5C    basis set group =>   1
Atom   6C    basis set group =>   1
Atom   7C    basis set group =>   1
Atom   8C    basis set group =>   1
Atom   9C    basis set group =>   1
Atom  10C    basis set group =>   1
Atom  11C    basis set group =>   1
Atom  12C    basis set group =>   1
Atom  13C    basis set group =>   1
Atom  14C    basis set group =>   1
Atom  15H    basis set group =>   2
Atom  16H    basis set group =>   2
Atom  17H    basis set group =>   2
Atom  18H    basis set group =>   2
Atom  19H    basis set group =>   2
Atom  20H    basis set group =>   2
Atom  21H    basis set group =>   2
Atom  22H    basis set group =>   2
Atom  23H    basis set group =>   2
Atom  24H    basis set group =>   2
Atom  25H    basis set group =>   2
Atom  26H    basis set group =>   2
Atom  27H    basis set group =>   2
Atom  28H    basis set group =>   2
Atom  29H    basis set group =>   2
Atom  30H    basis set group =>   2
---------------------------------
AUXILIARY/J BASIS SET INFORMATION
---------------------------------
There are 2 groups of distinct atoms

 Group   1 Type C   : 12s5p4d2f1g contracted to 6s4p3d1f1g pattern {711111/2111/211/2/1}
 Group   2 Type H   : 5s2p1d contracted to 3s1p1d pattern {311/2/1}

Atom   0C    basis set group =>   1
Atom   1C    basis set group =>   1
Atom   2C    basis set group =>   1
Atom   3C    basis set group =>   1
Atom   4C    basis set group =>   1
Atom   5C    basis set group =>   1
Atom   6C    basis set group =>   1
Atom   7C    basis set group =>   1
Atom   8C    basis set group =>   1
Atom   9C    basis set group =>   1
Atom  10C    basis set group =>   1
Atom  11C    basis set group =>   1
Atom  12C    basis set group =>   1
Atom  13C    basis set group =>   1
Atom  14C    basis set group =>   1
Atom  15H    basis set group =>   2
Atom  16H    basis set group =>   2
Atom  17H    basis set group =>   2
Atom  18H    basis set group =>   2
Atom  19H    basis set group =>   2
Atom  20H    basis set group =>   2
Atom  21H    basis set group =>   2
Atom  22H    basis set group =>   2
Atom  23H    basis set group =>   2
Atom  24H    basis set group =>   2
Atom  25H    basis set group =>   2
Atom  26H    basis set group =>   2
Atom  27H    basis set group =>   2
Atom  28H    basis set group =>   2
Atom  29H    basis set group =>   2
Atom  30H    basis set group =>   2
------------------------------------------------------------------------------
                             ORCA STARTUP CALCULATIONS
                           -- RI-GTO INTEGRALS CHOSEN --
------------------------------------------------------------------------------
------------------------------------------------------------------------------
                   ___                                                        
                  /   \      - P O W E R E D   B Y -                         
                 /     \                                                     
                 |  |  |   _    _      __       _____    __    __             
                 |  |  |  | |  | |    /  \     |  _  \  |  |  /  |          
                  \  \/   | |  | |   /    \    | | | |  |  | /  /          
                 / \  \   | |__| |  /  /\  \   | |_| |  |  |/  /          
                |  |  |   |  __  | /  /__\  \  |    /   |      \           
                |  |  |   | |  | | |   __   |  |    \   |  |\   \          
                \     /   | |  | | |  |  |  |  | |\  \  |  | \   \       
                 \___/    |_|  |_| |__|  |__|  |_| \__\ |__|  \__/        
                                                                              
                      - O R C A' S   B I G   F R I E N D -                    
                                      &                                       
                       - I N T E G R A L  F E E D E R -                       
                                                                              
 v1 FN, 2020, v2 2021, v3 2022-2024                                           
------------------------------------------------------------------------------


----------------------
SHARK INTEGRAL PACKAGE
----------------------

Number of atoms                             ...     31
Number of basis functions                   ...    290
Number of shells                            ...    138
Maximum angular momentum                    ...      2
Integral batch strategy                     ... SHARK/LIBINT Hybrid
RI-J (if used) integral strategy            ... SPLIT-RIJ (Revised 2003 algorithm where possible)
Printlevel                                  ...      1
Contraction scheme used                     ... SEGMENTED contraction
Prescreening option                         ... SCHWARTZ
   Thresh                                   ... 2.500e-11
   Tcut                                     ... 2.500e-12
   Tpresel                                  ... 2.500e-12 
Coulomb Range Separation                    ... NOT USED
Exchange Range Separation                   ... NOT USED
Multipole approximations                    ... NOT USED
Finite Nucleus Model                        ... NOT USED
CABS basis                                  ... NOT available
Auxiliary Coulomb fitting basis             ... AVAILABLE
   # of basis functions in Aux-J            ...    911
   # of shells in Aux-J                     ...    305
   Maximum angular momentum in Aux-J        ...      4
Auxiliary J/K fitting basis                 ... NOT available
Auxiliary Correlation fitting basis         ... NOT available
Auxiliary 'external' fitting basis          ... NOT available

Checking pre-screening integrals            ... done (  0.0 sec) Dimension = 138
   => SHARK Basis and OBASIS are compatible. Storing Pre-screening
Shell pair information
Shell pair cut-off parameter TPreSel        ...   2.5e-12
Total number of shell pairs                 ...      9591
Shell pairs after pre-screening             ...      7238
Total number of primitive shell pairs       ...     34173
Primitive shell pairs kept                  ...     17505
          la=0 lb=0:   2330 shell pairs
          la=1 lb=0:   2719 shell pairs
          la=1 lb=1:    821 shell pairs
          la=2 lb=0:    819 shell pairs
          la=2 lb=1:    477 shell pairs
          la=2 lb=2:     72 shell pairs

Checking whether 4 symmetric matrices of dimension 290 fit in memory
:Max Core in MB      =   4096.00
 MB in use           =     12.47
 MB left             =   4083.53
 MB needed           =      1.29
 Data fit in memory  = YES
Calculating RI/J V-Matrix + Cholesky decomp.... done (  0.0 sec)
Calculating Nuclear repulsion               ... done (  0.0 sec) ENN=    853.143271082226 Eh

Diagonalization of the overlap matrix:
Smallest eigenvalue                        ... 2.722e-04
Time for diagonalization                   ...    0.008 sec
Threshold for overlap eigenvalues          ... 1.000e-07
Number of eigenvalues below threshold      ... 0
Time for construction of square roots      ...    0.003 sec
Total time needed                          ...    0.011 sec

-------------------
DFT GRID GENERATION
-------------------

General Integration Accuracy     IntAcc      ... 4.388
Radial Grid Type                 RadialGrid  ... OptM3 with GC (2021)
Angular Grid (max. ang.)         AngularGrid ... 4 (Lebedev-302)
Angular grid pruning method      GridPruning ... 4 (adaptive)
Weight generation scheme         WeightScheme... mBecke (2022)
Basis function cutoff            BFCut       ... 1.0000e-11
Integration weight cutoff        WCut        ... 1.0000e-14
Partially contracted basis set               ... off
Rotationally invariant grid construction     ... off
Angular grids for H and He will be reduced by one unit

Total number of grid points                  ...   140879
Total number of batches                      ...     2216
Average number of points per batch           ...       63
Average number of grid points per atom       ...     4544

--------------------
COSX GRID GENERATION
--------------------

GRIDX 1
-------
General Integration Accuracy     IntAcc      ... 3.816
Radial Grid Type                 RadialGrid  ... OptM3 with GC (2021)
Angular Grid (max. ang.)         AngularGrid ... 1 (Lebedev-50)
Angular grid pruning method      GridPruning ... 4 (adaptive)
Weight generation scheme         WeightScheme... mBecke (2022)
Basis function cutoff            BFCut       ... 1.0000e-11
Integration weight cutoff        WCut        ... 1.0000e-14
Partially contracted basis set               ... on
Rotationally invariant grid construction     ... off
Angular grids for H and He will be reduced by one unit

Total number of grid points                  ...    18001
Total number of batches                      ...      157
Average number of points per batch           ...      114
Average number of grid points per atom       ...      581
UseSFitting                                  ... on

GRIDX 2
-------
General Integration Accuracy     IntAcc      ... 4.020
Radial Grid Type                 RadialGrid  ... OptM3 with GC (2021)
Angular Grid (max. ang.)         AngularGrid ... 2 (Lebedev-110)
Angular grid pruning method      GridPruning ... 4 (adaptive)
Weight generation scheme         WeightScheme... mBecke (2022)
Basis function cutoff            BFCut       ... 1.0000e-11
Integration weight cutoff        WCut        ... 1.0000e-14
Partially contracted basis set               ... on
Rotationally invariant grid construction     ... off
Angular grids for H and He will be reduced by one unit

Total number of grid points                  ...    38528
Total number of batches                      ...      317
Average number of points per batch           ...      121
Average number of grid points per atom       ...     1243
UseSFitting                                  ... on

GRIDX 3
-------
General Integration Accuracy     IntAcc      ... 4.338
Radial Grid Type                 RadialGrid  ... OptM3 with GC (2021)
Angular Grid (max. ang.)         AngularGrid ... 3 (Lebedev-194)
Angular grid pruning method      GridPruning ... 4 (adaptive)
Weight generation scheme         WeightScheme... mBecke (2022)
Basis function cutoff            BFCut       ... 1.0000e-11
Integration weight cutoff        WCut        ... 1.0000e-14
Partially contracted basis set               ... on
Rotationally invariant grid construction     ... off
Angular grids for H and He will be reduced by one unit

Total number of grid points                  ...    84216
Total number of batches                      ...      673
Average number of points per batch           ...      125
Average number of grid points per atom       ...     2717
UseSFitting                                  ... on
Grids setup in  -0.1 sec
Initializing property integral containers    ... done (  0.0 sec)

SHARK setup successfully completed in   0.1 seconds

Maximum memory used throughout the entire STARTUP-calculation: 57.5 MB
-------------------------------------------------------------------------------
                                 ORCA GUESS
                   Start orbitals & Density for SCF / CASSCF
-------------------------------------------------------------------------------

------------
SCF SETTINGS
------------
Hamiltonian:
 Density Functional     Method          .... DFT(GTOs)
 Exchange Functional    Exchange        .... B88
   X-Alpha parameter    XAlpha          ....  0.666667
   Becke's b parameter  XBeta           ....  0.004200
 Correlation Functional Correlation     .... LYP
 LDA part of GGA corr.  LDAOpt          .... VWN-5
 Gradients option       PostSCFGGA      .... off
 Hybrid DFT is turned on
   Fraction HF Exchange ScalHFX         ....  0.200000
   Scaling of DF-GGA-X  ScalDFX         ....  0.720000
   Scaling of DF-GGA-C  ScalDFC         ....  0.810000
   Scaling of DF-LDA-C  ScalLDAC        ....  1.000000
   Perturbative correction              ....  0.000000
   NL short-range parameter             ....  4.800000
 RI-approximation to the Coulomb term is turned on
   Number of AuxJ basis functions       .... 911
   RIJ-COSX (HFX calculated with COS-X)).... on


General Settings:
 Integral files         IntName         .... local_minimum
 Hartree-Fock type      HFTyp           .... RHF
 Total Charge           Charge          ....    0
 Multiplicity           Mult            ....    1
 Number of Electrons    NEL             ....  106
 Basis Dimension        Dim             ....  290
 Nuclear Repulsion      ENuc            ....    853.1432710822 Eh

Convergence Acceleration:
 AO-DIIS                CNVDIIS         .... on
   Start iteration      DIISMaxIt       ....    12
   Startup error        DIISStart       ....  0.200000
   # of expansion vecs  DIISMaxEq       ....     5
   Bias factor          DIISBfac        ....   1.050
   Max. coefficient     DIISMaxC        ....  10.000
 MO-DIIS                CNVKDIIS        .... off
 Trust-Rad. Augm. Hess. CNVTRAH         .... auto
   Auto Start mean grad. ratio tolernc. ....  1.125000
   Auto Start start iteration           ....    50
   Auto Start num. interpolation iter.  ....    10
   Max. Number of Micro iterations      ....    24
   Max. Number of Macro iterations      .... Maxiter - #DIIS iter
   Number of Davidson start vectors     ....     2
   Converg. threshold    (grad. norm)   ....   1.000e-05
   Grad. Scal. Fac. for Micro threshold ....   0.100
   Minimum threshold for Micro iter.    ....   1.000e-02
   NR start threshold (gradient norm)   ....   1.000e-04
   Initial trust radius                 ....   0.400
   Minimum AH scaling param. (alpha)    ....   1.000
   Maximum AH scaling param. (alpha)    .... 1000.000
   Quad. conv. algorithm                .... NR
   White noise on init. David. guess    .... on
   Maximum white noise                  ....   0.010
   Pseudo random numbers                .... off
   Inactive MOs                         .... canonical
   Orbital update algorithm             .... Taylor
   Preconditioner                       .... Diag
   Full preconditioner red. dimension   ....   250
 SOSCF                 CNVSOSCF           .... on
   Start iteration     SOSCFMaxIt         ....   150
   Startup grad/error  SOSCFStart         ....  0.003300
   Hessian update      SOSCFHessUp        .... L-BFGS
   Autom. constraints  SOSCFAutoConstrain .... off
 Level Shifting         CNVShift        .... on
   Level shift para.    LevelShift      ....    0.2500
   Turn off err/grad.   ShiftErr        ....    0.0010
 Zerner damping         CNVZerner       .... off
 Static damping         CNVDamp         .... on
   Fraction old density DampFac         ....    0.7000
   Max. Damping (<1)    DampMax         ....    0.9800
   Min. Damping (>=0)   DampMin         ....    0.0000
   Turn off err/grad.   DampErr         ....    0.1000

SCF Procedure:
 Maximum # iterations   MaxIter         ....   125
 SCF integral mode      SCFMode         .... Direct
   Integral package                     .... SHARK and LIBINT hybrid scheme
 Reset frequency        DirectResetFreq ....    20
 Integral Threshold     Thresh          ....  2.500e-11 Eh
 Primitive CutOff       TCut            ....  2.500e-12 Eh

Convergence Tolerance:
 Convergence Check Mode ConvCheckMode   .... Total+1el-Energy
 Convergence forced     ConvForced      .... 0
 Energy Change          TolE            ....  1.000e-08 Eh
 1-El. energy change                    ....  1.000e-05 Eh
 Orbital Gradient       TolG            ....  1.000e-05
 Orbital Rotation angle TolX            ....  1.000e-05
 DIIS Error             TolErr          ....  5.000e-07

------------------------------
INITIAL GUESS: MODEL POTENTIAL
------------------------------
Loading Hartree-Fock densities                     ... done
Calculating cut-offs                               ... done
Initializing the effective Hamiltonian             ... done
Setting up the integral package (SHARK)            ... done
Starting the Coulomb interaction                   ... done (   0.3 sec)
Making the grid                                    ... done (   0.3 sec)
Mapping shells                                     ... done
Starting the XC term evaluation                    ... done (   0.4 sec)
  promolecular density results
     # of electrons  =    105.997667749
     EX              =    -81.936695318
     EC              =     -3.504499412
     EX+EC           =    -85.441194730
Transforming the Hamiltonian                       ... done (   0.0 sec)
Diagonalizing the Hamiltonian                      ... done (   0.0 sec)
Back transforming the eigenvectors                 ... done (   0.0 sec)
Now organizing SCF variables                       ... done
                      ------------------
                      INITIAL GUESS DONE (   1.0 sec)
                      ------------------
             **** ENERGY FILE WAS UPDATED (local_minimum.en.tmp) ****
Finished Guess after   1.1 sec
Maximum memory used throughout the entire GUESS-calculation: 20.0 MB

-------------------------------------------------------------------------------------------
                                      ORCA LEAN-SCF
                              memory conserving SCF solver
-------------------------------------------------------------------------------------------

----------------------------------------D-I-I-S--------------------------------------------
Iteration    Energy (Eh)           Delta-E    RMSDP     MaxDP     DIISErr   Damp  Time(sec)
-------------------------------------------------------------------------------------------
               ***  Starting incremental Fock matrix formation  ***
    1    -580.0814250062139763     0.00e+00  2.96e-03  6.67e-02  1.29e-01  0.700   9.7
    2    -580.2372975631521967    -1.56e-01  2.09e-03  4.21e-02  7.19e-02  0.700   4.7
                               ***Turning on AO-DIIS***
    3    -580.3076904777717573    -7.04e-02  9.42e-04  1.40e-02  3.14e-02  0.700   4.7
    4    -580.3479702175905004    -4.03e-02  1.82e-03  3.22e-02  1.71e-02  0.000   4.5
    5    -580.4332937640087948    -8.53e-02  2.12e-04  4.80e-03  4.47e-03  0.000   4.6
                              *** Initializing SOSCF ***
---------------------------------------S-O-S-C-F--------------------------------------
Iteration    Energy (Eh)           Delta-E    RMSDP     MaxDP     MaxGrad    Time(sec)
--------------------------------------------------------------------------------------
    6    -580.4337016913332263    -4.08e-04  8.59e-05  1.95e-03  1.13e-03     1.6
               *** Restarting incremental Fock matrix formation ***
    7    -580.4335683771846561     1.33e-04  5.52e-05  1.51e-03  1.84e-04     9.6
    8    -580.4335693035386612    -9.26e-07  1.43e-05  3.95e-04  1.71e-04     6.7
    9    -580.4335710161130919    -1.71e-06  9.90e-06  2.26e-04  7.25e-05     5.6
   10    -580.4335709220886201     9.40e-08  4.52e-06  1.07e-04  7.25e-05     5.4
   11    -580.4335711837213694    -2.62e-07  1.46e-06  3.22e-05  5.94e-06     2.4
   12    -580.4335711810688281     2.65e-09  5.20e-07  1.10e-05  7.24e-06     4.1
                 **** Energy Check signals convergence ****

               *****************************************************
               *                     SUCCESS                       *
               *           SCF CONVERGED AFTER  12 CYCLES          *
               *****************************************************

Recomputing exchange energy using gridx3       ... done (   16.457 sec)
Old exchange energy                            :    -16.695579781 Eh
New exchange energy                            :    -16.695596095 Eh
Exchange energy change after final integration :     -0.000016314 Eh
Total energy after final integration           :   -580.433587494 Eh
             **** ENERGY FILE WAS UPDATED (local_minimum.en.tmp) ****

----------------
TOTAL SCF ENERGY
----------------

Total Energy       :       -580.43358749443871 Eh          -15794.40089 eV

Components:
Nuclear Repulsion  :        853.14327108222642 Eh           23215.20864 eV
Electronic Energy  :      -1433.57684226218362 Eh          -39009.60909 eV
One Electron Energy:      -2474.15829740869549 Eh          -67325.27002 eV
Two Electron Energy:       1040.58145514651187 Eh           28315.66093 eV

Virial components:
Potential Energy   :      -1155.04635900560106 Eh          -31430.40932 eV
Kinetic Energy     :        574.61277151116235 Eh           15636.00843 eV
Virial Ratio       :          2.01012998017425

DFT components:
N(Alpha)           :       52.999990435632 electrons
N(Beta)            :       52.999990435632 electrons
N(Total)           :      105.999980871265 electrons
E(X)               :      -66.209159090736 Eh       
E(C)               :       -4.140718677489 Eh       
E(XC)              :      -70.349877768225 Eh       

---------------
SCF CONVERGENCE
---------------

  Last Energy change         ...   -2.6525e-09  Tolerance :   1.0000e-08
  Last MAX-Density change    ...    1.1007e-05  Tolerance :   1.0000e-07
  Last RMS-Density change    ...    5.1983e-07  Tolerance :   5.0000e-09
  Last DIIS Error            ...    1.1264e-03  Tolerance :   5.0000e-07
  Last Orbital Gradient      ...    7.2387e-06  Tolerance :   1.0000e-05
  Last Orbital Rotation      ...    9.4686e-06  Tolerance :   1.0000e-05


----------------
ORBITAL ENERGIES
----------------

  NO   OCC          E(Eh)            E(eV) 
   0   2.0000     -10.185775      -277.1690 
   1   2.0000     -10.185746      -277.1682 
   2   2.0000     -10.184225      -277.1269 
   3   2.0000     -10.184199      -277.1261 
   4   2.0000     -10.181149      -277.0431 
   5   2.0000     -10.180165      -277.0164 
   6   2.0000     -10.180160      -277.0162 
   7   2.0000     -10.179873      -277.0084 
   8   2.0000     -10.179846      -277.0077 
   9   2.0000     -10.177916      -276.9552 
  10   2.0000     -10.177892      -276.9545 
  11   2.0000     -10.177398      -276.9411 
  12   2.0000     -10.177372      -276.9404 
  13   2.0000     -10.177065      -276.9320 
  14   2.0000     -10.177046      -276.9315 
  15   2.0000      -0.853129       -23.2148 
  16   2.0000      -0.849917       -23.1274 
  17   2.0000      -0.799263       -21.7491 
  18   2.0000      -0.762068       -20.7369 
  19   2.0000      -0.735945       -20.0261 
  20   2.0000      -0.735234       -20.0067 
  21   2.0000      -0.721358       -19.6291 
  22   2.0000      -0.667487       -18.1632 
  23   2.0000      -0.621241       -16.9048 
  24   2.0000      -0.598139       -16.2762 
  25   2.0000      -0.591466       -16.0946 
  26   2.0000      -0.571753       -15.5582 
  27   2.0000      -0.560756       -15.2589 
  28   2.0000      -0.517468       -14.0810 
  29   2.0000      -0.504637       -13.7319 
  30   2.0000      -0.478749       -13.0274 
  31   2.0000      -0.460853       -12.5405 
  32   2.0000      -0.451821       -12.2947 
  33   2.0000      -0.445263       -12.1162 
  34   2.0000      -0.443142       -12.0585 
  35   2.0000      -0.426052       -11.5935 
  36   2.0000      -0.417684       -11.3658 
  37   2.0000      -0.415727       -11.3125 
  38   2.0000      -0.415039       -11.2938 
  39   2.0000      -0.398172       -10.8348 
  40   2.0000      -0.371187       -10.1005 
  41   2.0000      -0.368253       -10.0207 
  42   2.0000      -0.357413        -9.7257 
  43   2.0000      -0.353407        -9.6167 
  44   2.0000      -0.346209        -9.4208 
  45   2.0000      -0.339678        -9.2431 
  46   2.0000      -0.337492        -9.1836 
  47   2.0000      -0.326811        -8.8930 
  48   2.0000      -0.321596        -8.7511 
  49   2.0000      -0.251948        -6.8558 
  50   2.0000      -0.251606        -6.8466 
  51   2.0000      -0.243886        -6.6365 
  52   2.0000      -0.240018        -6.5312 
  53   0.0000      -0.003609        -0.0982 
  54   0.0000      -0.003043        -0.0828 
  55   0.0000       0.001407         0.0383 
  56   0.0000       0.004375         0.1191 
  57   0.0000       0.061764         1.6807 
  58   0.0000       0.065587         1.7847 
  59   0.0000       0.072176         1.9640 
  60   0.0000       0.081741         2.2243 
  61   0.0000       0.094213         2.5637 
  62   0.0000       0.099925         2.7191 
  63   0.0000       0.116942         3.1821 
*Only the first 10 virtual orbitals were printed.

                    ********************************
                    * MULLIKEN POPULATION ANALYSIS *
                    ********************************

-----------------------
MULLIKEN ATOMIC CHARGES
-----------------------
   0 C :   -0.014942
   1 C :    0.036008
   2 C :    0.028871
   3 C :    0.038548
   4 C :   -0.013568
   5 C :   -0.008309
   6 C :    0.108085
   7 C :   -0.025386
   8 C :    0.106616
   9 C :   -0.009412
  10 C :   -0.014510
  11 C :    0.036169
  12 C :    0.028572
  13 C :    0.038861
  14 C :   -0.013878
  15 H :   -0.044248
  16 H :   -0.030308
  17 H :   -0.029933
  18 H :   -0.031763
  19 H :   -0.040706
  20 H :   -0.000373
  21 H :    0.004666
  22 H :    0.012750
  23 H :    0.010014
  24 H :    0.001429
  25 H :    0.003049
  26 H :   -0.044216
  27 H :   -0.030175
  28 H :   -0.029919
  29 H :   -0.031723
  30 H :   -0.040270
Sum of atomic charges:   -0.0000000

--------------------------------
MULLIKEN REDUCED ORBITAL CHARGES
--------------------------------
  0 C s       :     3.229341  s :     3.229341
      pz      :     0.889860  p :     2.750208
      px      :     0.920197
      py      :     0.940152
      dz2     :     0.008017  d :     0.035392
      dxz     :     0.010209
      dyz     :     0.006602
      dx2y2   :     0.005138
      dxy     :     0.005427

  1 C s       :     3.150014  s :     3.150014
      pz      :     0.855280  p :     2.777448
      px      :     0.944951
      py      :     0.977216
      dz2     :     0.008882  d :     0.036531
      dxz     :     0.010020
      dyz     :     0.005185
      dx2y2   :     0.006592
      dxy     :     0.005852

  2 C s       :     3.152107  s :     3.152107
      pz      :     0.965015  p :     2.782860
      px      :     0.865636
      py      :     0.952209
      dz2     :     0.010710  d :     0.036163
      dxz     :     0.009429
      dyz     :     0.007519
      dx2y2   :     0.003768
      dxy     :     0.004737

  3 C s       :     3.148549  s :     3.148549
      pz      :     0.879617  p :     2.776424
      px      :     0.949333
      py      :     0.947474
      dz2     :     0.008370  d :     0.036479
      dxz     :     0.010324
      dyz     :     0.006942
      dx2y2   :     0.005321
      dxy     :     0.005522

  4 C s       :     3.231703  s :     3.231703
      pz      :     0.854212  p :     2.746424
      px      :     0.909624
      py      :     0.982588
      dz2     :     0.008636  d :     0.035441
      dxz     :     0.009812
      dyz     :     0.005082
      dx2y2   :     0.006219
      dxy     :     0.005690

  5 C s       :     3.082208  s :     3.082208
      pz      :     0.942500  p :     2.882322
      px      :     0.972614
      py      :     0.967208
      dz2     :     0.010941  d :     0.043779
      dxz     :     0.011448
      dyz     :     0.007873
      dx2y2   :     0.007002
      dxy     :     0.006516

  6 C s       :     2.908214  s :     2.908214
      pz      :     1.007433  p :     2.947012
      px      :     0.957046
      py      :     0.982533
      dz2     :     0.007009  d :     0.036689
      dxz     :     0.008425
      dyz     :     0.006982
      dx2y2   :     0.007382
      dxy     :     0.006891

  7 C s       :     2.995347  s :     2.995347
      pz      :     1.008823  p :     2.993040
      px      :     0.990342
      py      :     0.993875
      dz2     :     0.007399  d :     0.036999
      dxz     :     0.008566
      dyz     :     0.006700
      dx2y2   :     0.007381
      dxy     :     0.006953

  8 C s       :     2.907482  s :     2.907482
      pz      :     0.987347  p :     2.949203
      px      :     0.972582
      py      :     0.989273
      dz2     :     0.006461  d :     0.036699
      dxz     :     0.009354
      dyz     :     0.006763
      dx2y2   :     0.007382
      dxy     :     0.006739

  9 C s       :     3.083716  s :     3.083716
      pz      :     0.953348  p :     2.881908
      px      :     0.963983
      py      :     0.964577
      dz2     :     0.011476  d :     0.043787
      dxz     :     0.010997
      dyz     :     0.008926
      dx2y2   :     0.006309
      dxy     :     0.006079

 10 C s       :     3.229438  s :     3.229438
      pz      :     0.817809  p :     2.749690
      px      :     0.963409
      py      :     0.968471
      dz2     :     0.008742  d :     0.035383
      dxz     :     0.009341
      dyz     :     0.006906
      dx2y2   :     0.005215
      dxy     :     0.005178

 11 C s       :     3.149920  s :     3.149920
      pz      :     0.965523  p :     2.777374
      px      :     0.879235
      py      :     0.932616
      dz2     :     0.011255  d :     0.036537
      dxz     :     0.009452
      dyz     :     0.008162
      dx2y2   :     0.002887
      dxy     :     0.004782

 12 C s       :     3.152230  s :     3.152230
      pz      :     0.853069  p :     2.783034
      px      :     0.947396
      py      :     0.982569
      dz2     :     0.009042  d :     0.036164
      dxz     :     0.009901
      dyz     :     0.006199
      dx2y2   :     0.005783
      dxy     :     0.005239

 13 C s       :     3.148208  s :     3.148208
      pz      :     0.877367  p :     2.776454
      px      :     0.947263
      py      :     0.951824
      dz2     :     0.008753  d :     0.036477
      dxz     :     0.009702
      dyz     :     0.007143
      dx2y2   :     0.005600
      dxy     :     0.005280

 14 C s       :     3.231951  s :     3.231951
      pz      :     0.944081  p :     2.746485
      px      :     0.859551
      py      :     0.942854
      dz2     :     0.011014  d :     0.035442
      dxz     :     0.009087
      dyz     :     0.007803
      dx2y2   :     0.002799
      dxy     :     0.004738

 15 H s       :     1.020936  s :     1.020936
      pz      :     0.010244  p :     0.023312
      px      :     0.005893
      py      :     0.007175

 16 H s       :     1.006998  s :     1.006998
      pz      :     0.012867  p :     0.023309
      px      :     0.006019
      py      :     0.004423

 17 H s       :     1.006576  s :     1.006576
      pz      :     0.003815  p :     0.023356
      px      :     0.012439
      py      :     0.007103

 18 H s       :     1.008457  s :     1.008457
      pz      :     0.010201  p :     0.023306
      px      :     0.005930
      py      :     0.007176

 19 H s       :     1.017046  s :     1.017046
      pz      :     0.012892  p :     0.023660
      px      :     0.006094
      py      :     0.004673

 20 H s       :     0.977256  s :     0.977256
      pz      :     0.005638  p :     0.023117
      px      :     0.004743
      py      :     0.012736

 21 H s       :     0.972086  s :     0.972086
      pz      :     0.007550  p :     0.023247
      px      :     0.008741
      py      :     0.006956

 22 H s       :     0.964531  s :     0.964531
      pz      :     0.005495  p :     0.022719
      px      :     0.004861
      py      :     0.012362

 23 H s       :     0.967358  s :     0.967358
      pz      :     0.007481  p :     0.022627
      px      :     0.008680
      py      :     0.006466

 24 H s       :     0.975415  s :     0.975415
      pz      :     0.005961  p :     0.023157
      px      :     0.004842
      py      :     0.012354

 25 H s       :     0.973737  s :     0.973737
      pz      :     0.007812  p :     0.023213
      px      :     0.008697
      py      :     0.006704

 26 H s       :     1.020905  s :     1.020905
      pz      :     0.011296  p :     0.023311
      px      :     0.005577
      py      :     0.006438

 27 H s       :     1.006868  s :     1.006868
      pz      :     0.003595  p :     0.023307
      px      :     0.011622
      py      :     0.008091

 28 H s       :     1.006564  s :     1.006564
      pz      :     0.012277  p :     0.023355
      px      :     0.006356
      py      :     0.004722

 29 H s       :     1.008418  s :     1.008418
      pz      :     0.011494  p :     0.023305
      px      :     0.005475
      py      :     0.006337

 30 H s       :     1.016613  s :     1.016613
      pz      :     0.003781  p :     0.023656
      px      :     0.011631
      py      :     0.008244



                     *******************************
                     * LOEWDIN POPULATION ANALYSIS *
                     *******************************

----------------------
LOEWDIN ATOMIC CHARGES
----------------------
   0 C :   -0.026238
   1 C :   -0.021457
   2 C :   -0.030935
   3 C :   -0.020862
   4 C :   -0.033240
   5 C :   -0.019277
   6 C :   -0.020432
   7 C :   -0.029503
   8 C :   -0.020615
   9 C :   -0.019311
  10 C :   -0.026118
  11 C :   -0.021477
  12 C :   -0.030986
  13 C :   -0.020880
  14 C :   -0.033430
  15 H :    0.019969
  16 H :    0.023005
  17 H :    0.022362
  18 H :    0.022805
  19 H :    0.020455
  20 H :    0.027760
  21 H :    0.030084
  22 H :    0.020290
  23 H :    0.021239
  24 H :    0.028540
  25 H :    0.029534
  26 H :    0.019989
  27 H :    0.023026
  28 H :    0.022369
  29 H :    0.022809
  30 H :    0.020527

-------------------------------
LOEWDIN REDUCED ORBITAL CHARGES
-------------------------------
  0 C s       :     2.852271  s :     2.852271
      pz      :     1.038590  p :     3.080386
      px      :     1.039319
      py      :     1.002477
      dz2     :     0.022184  d :     0.093581
      dxz     :     0.028844
      dyz     :     0.016265
      dx2y2   :     0.012180
      dxy     :     0.014108

  1 C s       :     2.852093  s :     2.852093
      pz      :     1.036562  p :     3.074452
      px      :     1.039732
      py      :     0.998157
      dz2     :     0.023671  d :     0.094912
      dxz     :     0.026836
      dyz     :     0.013186
      dx2y2   :     0.015383
      dxy     :     0.015836

  2 C s       :     2.851849  s :     2.851849
      pz      :     1.064678  p :     3.084986
      px      :     1.021730
      py      :     0.998579
      dz2     :     0.029588  d :     0.094100
      dxz     :     0.025895
      dyz     :     0.019091
      dx2y2   :     0.008070
      dxy     :     0.011457

  3 C s       :     2.851818  s :     2.851818
      pz      :     1.045540  p :     3.074271
      px      :     1.038700
      py      :     0.990031
      dz2     :     0.022972  d :     0.094774
      dxz     :     0.028375
      dyz     :     0.016722
      dx2y2   :     0.012507
      dxy     :     0.014197

  4 C s       :     2.849961  s :     2.849961
      pz      :     1.037023  p :     3.089573
      px      :     1.040606
      py      :     1.011944
      dz2     :     0.023643  d :     0.093707
      dxz     :     0.026701
      dyz     :     0.013120
      dx2y2   :     0.014557
      dxy     :     0.015686

  5 C s       :     2.848964  s :     2.848964
      pz      :     1.071962  p :     3.060274
      px      :     1.011261
      py      :     0.977050
      dz2     :     0.030452  d :     0.110038
      dxz     :     0.030605
      dyz     :     0.019821
      dx2y2   :     0.013782
      dxy     :     0.015379

  6 C s       :     2.827015  s :     2.827015
      pz      :     1.029868  p :     3.101871
      px      :     1.024295
      py      :     1.047708
      dz2     :     0.018841  d :     0.091546
      dxz     :     0.021001
      dyz     :     0.015539
      dx2y2   :     0.018414
      dxy     :     0.017750

  7 C s       :     2.830851  s :     2.830851
      pz      :     1.032037  p :     3.108555
      px      :     1.028504
      py      :     1.048014
      dz2     :     0.019009  d :     0.090097
      dxz     :     0.021078
      dyz     :     0.015008
      dx2y2   :     0.016987
      dxy     :     0.018015

  8 C s       :     2.826997  s :     2.826997
      pz      :     1.026912  p :     3.102050
      px      :     1.027575
      py      :     1.047564
      dz2     :     0.017302  d :     0.091568
      dxz     :     0.023390
      dyz     :     0.016370
      dx2y2   :     0.016572
      dxy     :     0.017933

  9 C s       :     2.848945  s :     2.848945
      pz      :     1.043682  p :     3.060344
      px      :     1.025897
      py      :     0.990765
      dz2     :     0.030512  d :     0.110022
      dxz     :     0.028883
      dyz     :     0.020705
      dx2y2   :     0.013844
      dxy     :     0.016078

 10 C s       :     2.852237  s :     2.852237
      pz      :     1.042541  p :     3.080307
      px      :     1.032119
      py      :     1.005647
      dz2     :     0.024417  d :     0.093574
      dxz     :     0.026251
      dyz     :     0.017319
      dx2y2   :     0.011734
      dxy     :     0.013854

 11 C s       :     2.852075  s :     2.852075
      pz      :     1.070671  p :     3.074477
      px      :     1.013670
      py      :     0.990137
      dz2     :     0.031597  d :     0.094924
      dxz     :     0.025619
      dyz     :     0.020511
      dx2y2   :     0.005606
      dxy     :     0.011591

 12 C s       :     2.851844  s :     2.851844
      pz      :     1.041670  p :     3.085044
      px      :     1.034082
      py      :     1.009292
      dz2     :     0.024683  d :     0.094099
      dxz     :     0.026283
      dyz     :     0.015804
      dx2y2   :     0.012870
      dxy     :     0.014459

 13 C s       :     2.851800  s :     2.851800
      pz      :     1.044331  p :     3.074311
      px      :     1.033354
      py      :     0.996625
      dz2     :     0.024077  d :     0.094769
      dxz     :     0.026403
      dyz     :     0.017559
      dx2y2   :     0.012514
      dxy     :     0.014215

 14 C s       :     2.849956  s :     2.849956
      pz      :     1.061501  p :     3.089760
      px      :     1.021869
      py      :     1.006391
      dz2     :     0.031777  d :     0.093713
      dxz     :     0.025074
      dyz     :     0.019784
      dx2y2   :     0.005513
      dxy     :     0.011565

 15 H s       :     0.911450  s :     0.911450
      pz      :     0.029486  p :     0.068580
      px      :     0.017885
      py      :     0.021209

 16 H s       :     0.908736  s :     0.908736
      pz      :     0.036347  p :     0.068260
      px      :     0.018161
      py      :     0.013751

 17 H s       :     0.909033  s :     0.909033
      pz      :     0.012528  p :     0.068605
      px      :     0.035154
      py      :     0.020923

 18 H s       :     0.908939  s :     0.908939
      pz      :     0.029360  p :     0.068257
      px      :     0.017880
      py      :     0.021017

 19 H s       :     0.908956  s :     0.908956
      pz      :     0.037207  p :     0.070589
      px      :     0.018819
      py      :     0.014563

 20 H s       :     0.905827  s :     0.905827
      pz      :     0.016998  p :     0.066412
      px      :     0.013306
      py      :     0.036109

 21 H s       :     0.903371  s :     0.903371
      pz      :     0.022477  p :     0.066545
      px      :     0.025572
      py      :     0.018495

 22 H s       :     0.912281  s :     0.912281
      pz      :     0.016687  p :     0.067429
      px      :     0.014312
      py      :     0.036429

 23 H s       :     0.911577  s :     0.911577
      pz      :     0.022965  p :     0.067184
      px      :     0.026150
      py      :     0.018069

 24 H s       :     0.905007  s :     0.905007
      pz      :     0.017489  p :     0.066454
      px      :     0.013810
      py      :     0.035155

 25 H s       :     0.903949  s :     0.903949
      pz      :     0.023104  p :     0.066518
      px      :     0.025317
      py      :     0.018097

 26 H s       :     0.911438  s :     0.911438
      pz      :     0.032597  p :     0.068573
      px      :     0.016808
      py      :     0.019168

 27 H s       :     0.908713  s :     0.908713
      pz      :     0.011868  p :     0.068262
      px      :     0.032928
      py      :     0.023465

 28 H s       :     0.909023  s :     0.909023
      pz      :     0.034856  p :     0.068608
      px      :     0.019088
      py      :     0.014664

 29 H s       :     0.908932  s :     0.908932
      pz      :     0.032627  p :     0.068259
      px      :     0.016748
      py      :     0.018885

 30 H s       :     0.908859  s :     0.908859
      pz      :     0.012296  p :     0.070614
      px      :     0.033820
      py      :     0.024498



                      *****************************
                      * MAYER POPULATION ANALYSIS *
                      *****************************

  NA   - Mulliken gross atomic population
  ZA   - Total nuclear charge
  QA   - Mulliken gross atomic charge
  VA   - Mayer's total valence
  BVA  - Mayer's bonded valence
  FA   - Mayer's free valence

  ATOM       NA         ZA         QA         VA         BVA        FA
  0 C      6.0149     6.0000    -0.0149     3.8653     3.8653    -0.0000
  1 C      5.9640     6.0000     0.0360     3.8227     3.8227    -0.0000
  2 C      5.9711     6.0000     0.0289     3.8256     3.8256    -0.0000
  3 C      5.9615     6.0000     0.0385     3.8127     3.8127     0.0000
  4 C      6.0136     6.0000    -0.0136     3.8555     3.8555    -0.0000
  5 C      6.0083     6.0000    -0.0083     3.8932     3.8932    -0.0000
  6 C      5.8919     6.0000     0.1081     3.9322     3.9322    -0.0000
  7 C      6.0254     6.0000    -0.0254     4.1888     4.1888     0.0000
  8 C      5.8934     6.0000     0.1066     3.9345     3.9345     0.0000
  9 C      6.0094     6.0000    -0.0094     3.8925     3.8925    -0.0000
 10 C      6.0145     6.0000    -0.0145     3.8656     3.8656    -0.0000
 11 C      5.9638     6.0000     0.0362     3.8219     3.8219    -0.0000
 12 C      5.9714     6.0000     0.0286     3.8257     3.8257    -0.0000
 13 C      5.9611     6.0000     0.0389     3.8120     3.8120    -0.0000
 14 C      6.0139     6.0000    -0.0139     3.8565     3.8565    -0.0000
 15 H      1.0442     1.0000    -0.0442     0.9839     0.9839    -0.0000
[...]
      dz2     :     0.028933  d :     0.104908
      dxz     :     0.029173
      dyz     :     0.019129
      dx2y2   :     0.013051
      dxy     :     0.014621

  6 C s       :     2.835761  s :     2.835761
      pz      :     1.028853  p :     3.099345
      px      :     1.022813
      py      :     1.047679
      dz2     :     0.018058  d :     0.088869
      dxz     :     0.020888
      dyz     :     0.015305
      dx2y2   :     0.017687
      dxy     :     0.016932

  7 C s       :     2.838291  s :     2.838291
      pz      :     1.030268  p :     3.106940
      px      :     1.028059
      py      :     1.048613
      dz2     :     0.018249  d :     0.088344
      dxz     :     0.021009
      dyz     :     0.015170
      dx2y2   :     0.016820
      dxy     :     0.017095

  8 C s       :     2.835741  s :     2.835741
      pz      :     1.023819  p :     3.099518
      px      :     1.027010
      py      :     1.048689
      dz2     :     0.016505  d :     0.088887
      dxz     :     0.023081
      dyz     :     0.015810
      dx2y2   :     0.016457
      dxy     :     0.017035

  9 C s       :     2.858845  s :     2.858845
      pz      :     1.040782  p :     3.055104
      px      :     1.026283
      py      :     0.988039
      dz2     :     0.029012  d :     0.104892
      dxz     :     0.028124
      dyz     :     0.019310
      dx2y2   :     0.013192
      dxy     :     0.015255

 10 C s       :     2.863018  s :     2.863018
      pz      :     1.040842  p :     3.076155
      px      :     1.031202
      py      :     1.004110
      dz2     :     0.023303  d :     0.089204
      dxz     :     0.025546
      dyz     :     0.015827
      dx2y2   :     0.011253
      dxy     :     0.013275

 11 C s       :     2.862845  s :     2.862845
      pz      :     1.066457  p :     3.070980
      px      :     1.014841
      py      :     0.989682
      dz2     :     0.030167  d :     0.090530
      dxz     :     0.024924
      dyz     :     0.019263
      dx2y2   :     0.005524
      dxy     :     0.010653

 12 C s       :     2.862691  s :     2.862691
      pz      :     1.039587  p :     3.080541
      px      :     1.034171
      py      :     1.006784
      dz2     :     0.023557  d :     0.089873
      dxz     :     0.025566
      dyz     :     0.014558
      dx2y2   :     0.012338
      dxy     :     0.013854

 13 C s       :     2.862635  s :     2.862635
      pz      :     1.042017  p :     3.070770
      px      :     1.033688
      py      :     0.995065
      dz2     :     0.023032  d :     0.090437
      dxz     :     0.025791
      dyz     :     0.015979
      dx2y2   :     0.011963
      dxy     :     0.013673

 14 C s       :     2.861093  s :     2.861093
      pz      :     1.057456  p :     3.084969
      px      :     1.022008
      py      :     1.005505
      dz2     :     0.030309  d :     0.089169
      dxz     :     0.024324
      dyz     :     0.018504
      dx2y2   :     0.005421
      dxy     :     0.010610

 15 H s       :     0.910953  s :     0.910953
      pz      :     0.028941  p :     0.066491
      px      :     0.016991
      py      :     0.020559

 16 H s       :     0.907952  s :     0.907952
      pz      :     0.035920  p :     0.066222
      px      :     0.017330
      py      :     0.012972

 17 H s       :     0.908281  s :     0.908281
      pz      :     0.011697  p :     0.066541
      px      :     0.034277
      py      :     0.020567

 18 H s       :     0.908210  s :     0.908210
      pz      :     0.028835  p :     0.066240
      px      :     0.017051
      py      :     0.020354

 19 H s       :     0.908876  s :     0.908876
      pz      :     0.036739  p :     0.068447
      px      :     0.017955
      py      :     0.013753

 20 H s       :     0.906084  s :     0.906084
      pz      :     0.016645  p :     0.064672
      px      :     0.012655
      py      :     0.035373

 21 H s       :     0.903810  s :     0.903810
      pz      :     0.022069  p :     0.064722
      px      :     0.025113
      py      :     0.017540

 22 H s       :     0.913248  s :     0.913248
      pz      :     0.016423  p :     0.065394
      px      :     0.013414
      py      :     0.035557

 23 H s       :     0.912517  s :     0.912517
      pz      :     0.022546  p :     0.065165
      px      :     0.025304
      py      :     0.017315

 24 H s       :     0.905132  s :     0.905132
      pz      :     0.016956  p :     0.064691
      px      :     0.013116
      py      :     0.034619

 25 H s       :     0.904540  s :     0.904540
      pz      :     0.022950  p :     0.064717
      px      :     0.024404
      py      :     0.017363

 26 H s       :     0.910943  s :     0.910943
      pz      :     0.031906  p :     0.066479
      px      :     0.016235
      py      :     0.018338

 27 H s       :     0.907937  s :     0.907937
      pz      :     0.010984  p :     0.066222
      px      :     0.032956
      py      :     0.022281

 28 H s       :     0.908273  s :     0.908273
      pz      :     0.034250  p :     0.066543
      px      :     0.018428
      py      :     0.013866

 29 H s       :     0.908201  s :     0.908201
      pz      :     0.032031  p :     0.066240
      px      :     0.016152
      py      :     0.018057

 30 H s       :     0.908793  s :     0.908793
      pz      :     0.011432  p :     0.068469
      px      :     0.033806
      py      :     0.023231



                      *****************************
                      * MAYER POPULATION ANALYSIS *
                      *****************************

  NA   - Mulliken gross atomic population
  ZA   - Total nuclear charge
  QA   - Mulliken gross atomic charge
  VA   - Mayer's total valence
  BVA  - Mayer's bonded valence
  FA   - Mayer's free valence

  ATOM       NA         ZA         QA         VA         BVA        FA
  0 C      6.0193     6.0000    -0.0193     3.8651     3.8651     0.0000
  1 C      5.9753     6.0000     0.0247     3.8339     3.8339    -0.0000
  2 C      5.9804     6.0000     0.0196     3.8316     3.8316    -0.0000
  3 C      5.9721     6.0000     0.0279     3.8238     3.8238    -0.0000
  4 C      6.0208     6.0000    -0.0208     3.8624     3.8624     0.0000
  5 C      6.0079     6.0000    -0.0079     3.8999     3.8999     0.0000
  6 C      5.9095     6.0000     0.0905     3.9366     3.9366     0.0000
  7 C      6.0282     6.0000    -0.0282     4.1590     4.1590     0.0000
  8 C      5.9109     6.0000     0.0891     3.9386     3.9386     0.0000
  9 C      6.0087     6.0000    -0.0087     3.8991     3.8991     0.0000
 10 C      6.0191     6.0000    -0.0191     3.8653     3.8653    -0.0000
 11 C      5.9752     6.0000     0.0248     3.8335     3.8335     0.0000
 12 C      5.9807     6.0000     0.0193     3.8317     3.8317     0.0000
 13 C      5.9718     6.0000     0.0282     3.8229     3.8229    -0.0000
 14 C      6.0211     6.0000    -0.0211     3.8634     3.8634    -0.0000
 15 H      1.0341     1.0000    -0.0341     0.9845     0.9845     0.0000
 16 H      1.0202     1.0000    -0.0202     0.9766     0.9766    -0.0000
 17 H      1.0200     1.0000    -0.0200     0.9772     0.9772     0.0000
 18 H      1.0218     1.0000    -0.0218     0.9767     0.9767    -0.0000
 19 H      1.0307     1.0000    -0.0307     0.9908     0.9908     0.0000
 20 H      0.9962     1.0000     0.0038     0.9871     0.9871    -0.0000
 21 H      0.9913     1.0000     0.0087     0.9849     0.9849    -0.0000
 22 H      0.9841     1.0000     0.0159     0.9715     0.9715     0.0000
 23 H      0.9866     1.0000     0.0134     0.9759     0.9759     0.0000
 24 H      0.9942     1.0000     0.0058     0.9863     0.9863    -0.0000
 25 H      0.9932     1.0000     0.0068     0.9855     0.9855    -0.0000
 26 H      1.0340     1.0000    -0.0340     0.9844     0.9844    -0.0000
 27 H      1.0201     1.0000    -0.0201     0.9766     0.9766     0.0000
 28 H      1.0200     1.0000    -0.0200     0.9772     0.9772    -0.0000
 29 H      1.0218     1.0000    -0.0218     0.9767     0.9767    -0.0000
 30 H      1.0304     1.0000    -0.0304     0.9910     0.9910    -0.0000

  Mayer bond orders larger than 0.100000
B(  0-C ,  1-C ) :   1.3923 B(  0-C ,  5-C ) :   1.3890 B(  0-C , 15-H ) :   0.9878 
B(  1-C ,  2-C ) :   1.3702 B(  1-C , 16-H ) :   0.9812 B(  2-C ,  3-C ) :   1.3988 
B(  2-C , 17-H ) :   0.9845 B(  3-C ,  4-C ) :   1.3564 B(  3-C , 18-H ) :   0.9793 
B(  4-C ,  5-C ) :   1.4144 B(  4-C , 19-H ) :   0.9782 B(  5-C ,  6-C ) :   0.9945 
B(  6-C ,  7-C ) :   1.1072 B(  6-C , 20-H ) :   0.9240 B(  6-C , 21-H ) :   0.9169 
B(  7-C ,  8-C ) :   1.1088 B(  7-C , 22-H ) :   0.9170 B(  7-C , 23-H ) :   0.9275 
B(  8-C ,  9-C ) :   0.9934 B(  8-C , 24-H ) :   0.9212 B(  8-C , 25-H ) :   0.9197 
B(  9-C , 10-C ) :   1.3888 B(  9-C , 14-C ) :   1.4159 B( 10-C , 11-C ) :   1.3927 
B( 10-C , 26-H ) :   0.9881 B( 11-C , 12-C ) :   1.3695 B( 11-C , 27-H ) :   0.9812 
B( 12-C , 13-C ) :   1.3997 B( 12-C , 28-H ) :   0.9844 B( 13-C , 14-C ) :   1.3551 
B( 13-C , 29-H ) :   0.9791 B( 14-C , 30-H ) :   0.9777 

-------
TIMINGS
-------

Total SCF time: 0 days 0 hours 0 min 47 sec 

Total time                  ....      47.557 sec
Sum of individual times     ....      44.085 sec  ( 92.7%)

SCF preparation             ....       0.079 sec  (  0.2%)
Fock matrix formation       ....      43.896 sec  ( 92.3%)
  Startup                   ....       0.002 sec  (  0.0% of F)
  Split-RI-J                ....       3.541 sec  (  8.1% of F)
  Chain of spheres X        ....      38.703 sec  ( 88.2% of F)
  XC integration            ....       5.053 sec  ( 11.5% of F)
    XC Preparation          ....       0.000 sec  (  0.0% of XC)
    Basis function eval.    ....       2.011 sec  ( 39.8% of XC)
    Density eval.           ....       1.403 sec  ( 27.8% of XC)
    XC-Functional eval.     ....       0.249 sec  (  4.9% of XC)
    XC-Potential eval.      ....       1.259 sec  ( 24.9% of XC)
Diagonalization             ....       0.000 sec  (  0.0%)
Density matrix formation    ....       0.008 sec  (  0.0%)
Total Energy calculation    ....       0.002 sec  (  0.0%)
Population analysis         ....       0.018 sec  (  0.0%)
Orbital Transformation      ....       0.013 sec  (  0.0%)
Orbital Orthonormalization  ....       0.000 sec  (  0.0%)
DIIS solution               ....       0.016 sec  (  0.0%)
SOSCF solution              ....       0.052 sec  (  0.1%)
Finished LeanSCF after  47.6 sec

Maximum memory used throughout the entire LEANSCF-calculation: 37.6 MB

-------------------------   --------------------
FINAL SINGLE POINT ENERGY      -580.438534099127
-------------------------   --------------------

                                *** OPTIMIZATION RUN DONE ***


------------------------------------------------------------------------------
                              ORCA PROPERTY CALCULATIONS
------------------------------------------------------------------------------

GBWName                                 ... local_minimum.gbw
Number of atoms                         ...     31
Number of basis functions               ...    290
Max core memory                         ...   4096 MB

Electric properties:
Dipole moment                           ... YES
Quadrupole moment                       ...  NO
Static polarizability (Dipole/Dipole)   ...  NO
Static polarizability (Dipole/Quad.)    ...  NO
Static polarizability (Quad./Quad.)     ...  NO
Static polarizability (Velocity)        ...  NO
Static hyperpolarizability              ...  NO

Atomic electric properties:
Dipole moment                           ...  NO
Quadrupole moment                       ...  NO
Static polarizability                   ...  NO

Choice of electric origin               ... Center of mass
Position of electric origin             ...     3.131743     3.429682    -3.495849

General magnetic properties:
Magnetizability                         ...  NO

EPR properties:
g-Tensor (aka g-matrix)                 ...  NO
Zero-Field splitting spin-orbit         ...  NO
Zero-field splitting spin-spin          ...  NO
Hyperfine couplings                     ...  NO (   0 nuclei)
Quadrupole couplings                    ...  NO (   0 nuclei)
Contact density                         ...  NO (   0 nuclei)

NMR properties:
Chemical shifts                         ...  NO (   0 nuclei)
Spin-rotation constants                 ...  NO (   0 nuclei)
Spin-spin couplings                     ...  NO (   0 nuclei,    0 pairs)

Choice of magnetic origin               ... GIAO
Position of magnetic origin             ...     0.000000     0.000000     0.000000

Properties with geometric perturbations:
SCF Hessian                             ...  NO
IR spectrum                             ...  NO
VCD spectrum                            ...  NO
X-ray spectroscopy properties:
SCF XES/XAS/RIXS spectra                ...  NO

SCF SOC stabilization energy            ...  NO
Diagonal Born-Oppenheimer correction    ...  NO

-------------
DIPOLE MOMENT
-------------

Method             : SCF
Type of density    : Electron Density
Multiplicity       :   1
Irrep              :   0
Energy             :  -580.4385340991268549 Eh
Basis              : AO
                                X                 Y                 Z
Electronic contribution:     -0.749075568      -0.627487223      -1.367815469
Nuclear contribution   :      0.823024518       0.684752714       1.500863757
                        -----------------------------------------
Total Dipole Moment    :      0.073948950       0.057265491       0.133048288
                        -----------------------------------------
Magnitude (a.u.)       :      0.162633424
Magnitude (Debye)      :      0.413381312



--------------------
Rotational spectrum 
--------------------
 
Rotational constants in cm-1:             0.071603             0.006577             0.006048 
Rotational constants in MHz :          2146.613025           197.174915           181.300685 

Dipole components along the rotational axes: 
x,y,z [a.u.] :     0.000430     0.161853     0.015911 
x,y,z [Debye]:     0.001092     0.411397     0.040443 

 

Dipole moment calculation done in   0.0 sec 

Maximum memory used throughout the entire PROP-calculation: 19.1 MB

--------------------------------
SUGGESTED CITATIONS FOR THIS RUN
--------------------------------

Below you find a list of papers that are relevant to this ORCA run
We neither can nor want to force you to cite these papers, but we appreciate if you do
You receive ORCA, which is the product of decades of hard work by many enthusiastic individuals, for free
The only thing we kindly ask in return is that you cite our papers,
We deeply appreciate it, if you show your appreciation for ORCA by not just citing the generic ORCA reference.

Please note that relegating all ORCA citations to the supporting information does *not* help us.
SI sections are not indexed - citations you put there will not count into any citation statistics
But we need these citations in order to attract the funding resources that allow us to do what we are doing

Therefore, if you are a happy ORCA user, please consider citing a few of the papers listed below in the main body of your paper

In addition to the list printed below, the program has created the file local_minimum.bibtex that contains the list in bibtex format
You can import this file easily into all common literature databanks and citation aid programs

It goes without saying that in many instances, there are alternative algorithms to achieve similar
results as the ones you have gotten from ORCA. It is, of course, also the case that in some instances
ORCA just re-implements algorithms worked out by others. We are fully aware of that and we are also
fully appreciative of our colleagues work. Hence this citation list should not be read as indicating
that the listed papers, which are focused on our own work, are the only ones worth citing. It simply
meant to make it easier for users to cite ORCA specific papers. It is not a substitute for doing your
own literature research and citing the relevant literature in a scientifically appropriate manner.

List of essential papers. We consider these as the minimum necessary citations

  1. Neese, F.
     Software update: the ORCA program system, version 6.0
     WIRES Comput. Molec. Sci. 2025 15(1), e70019
     doi.org/10.1002/wcms.70019

List of papers to cite with high priority. The work reported in these papers was absolutely
necessary for this run to complete.
Our perspective: the developers of density functionals and basis sets usually get cited in chemistry papers
Good! But without the algorithms to do something with them, the functionals or basis sets would not do anything.
Hence, in our opinion, the algorithm design and method developments papers are equally worthy of getting cited

  1. Neese, F.
     An improvement of the resolution of the identity approximation for the formation of the Coulomb matrix
     J. Comp. Chem. 2003 24(14), 1740-1747
     doi.org/10.1002/jcc.10318
  2. Neese, F.; Wennmohs, F.; Hansen, A.; Becker, U.
     Efficient, approximate and parallel Hartree-Fock and hybrid DFT calculations. A 'chain-of-spheres' algorithm for the Hartree-Fock exchange
     Chem. Phys. 2009 356(1-3), 98-109
     doi.org/10.1016/j.chemphys.2008.10.036
  3. Helmich-Paris, B.; de Souza, B.; Neese, F.; Izsák, R.
     An improved chain of spheres for exchange algorithm
     J. Chem. Phys. 2021 155(10), 104109
     doi.org/10.1063/5.0058766
  4. Neese, F.
     The SHARK Integral Generation and Digestion System
     J. Comp. Chem. 2022 44(3), 381
     doi.org/10.1002/jcc.26942

List of suggested additional citations. These are papers that are important in the 'surrounding' of 
of this run, or papers that preceded the highly important papers. If you like your results we are grateful for a citation.

  1. Izsak, R.; Neese, F.
     An overlap fitted chain of spheres exchange method
     J. Chem. Phys. 2011 135 , 144105
     doi.org/10.1063/1.3646921
  2. Izsak, R.; Hansen, A.; Neese, F.
     The resolution of identity and chain of spheres approximations for the LPNO-CCSD singles Fock term
     Molec. Phys. 2012 110 , 2413-2417
     doi.org/10.1080/00268976.2012.687466
  3. Neese, F.
     The ORCA program system
     WIRES Comput. Molec. Sci. 2012 2(1), 73-78
     doi.org/10.1002/wcms.81
  4. Izsak, R.; Neese, F.; Klopper, W.
     Robust fitting techniques in the chain of spheres approximation to the Fock exchange: The role of the complementary space
     J. Chem. Phys. 2013 139 , 
     doi.org/10.1063/1.4819264
  5. Neese, F.
     Software update: the ORCA program system, version 4.0
     WIRES Comput. Molec. Sci. 2018 8(1), 1-6
     doi.org/10.1002/wcms.1327
  6. Neese, F.; Wennmohs, F.; Becker, U.; Riplinger, C.
     The ORCA quantum chemistry program package
     J. Chem. Phys. 2020 152(22), 224108
     doi.org/10.1063/5.0004608
  7. Neese, F.
     Software update: The ORCA program system—Version 5.0
     WIRES Comput. Molec. Sci. 2022 12(1), e1606
     doi.org/10.1002/wcms.1606

List of optional additional citations

  1. Neese, F.
     Approximate second-order SCF convergence for spin unrestricted wavefunctions
     Chem. Phys. Lett. 2000 325(1-3), 93-98
     doi.org/10.1016/s0009-2614(00)00662-x

Timings for individual modules:

Sum of individual times          ...      651.732 sec (=  10.862 min)
Startup calculation              ...       13.858 sec (=   0.231 min)   2.1 %
SCF iterations                   ...      382.673 sec (=   6.378 min)  58.7 %
Property calculations            ...        0.061 sec (=   0.001 min)   0.0 %
SCF Gradient evaluation          ...      255.100 sec (=   4.252 min)  39.1 %
Geometry relaxation              ...        0.040 sec (=   0.001 min)   0.0 %
                             ****ORCA TERMINATED NORMALLY****
TOTAL RUN TIME: 0 days 0 hours 10 minutes 51 seconds 985 msec
