
                                 *****************
                                 * O   R   C   A *
                                 *****************

                                            #,                                       
                                            ###                                      
                                            ####                                     
                                            #####                                    
                                            ######                                   
                                           ########,                                 
                                     ,,################,,,,,                         
                               ,,#################################,,                 
                          ,,##########################################,,             
                       ,#########################################, ''#####,          
                    ,#############################################,,   '####,        
                  ,##################################################,,,,####,       
                ,###########''''           ''''###############################       
              ,#####''   ,,,,##########,,,,          '''####'''          '####       
            ,##' ,,,,###########################,,,                        '##       
           ' ,,###''''                  '''############,,,                           
         ,,##''                                '''############,,,,        ,,,,,,###''
      ,#''                                            '''#######################'''  
     '                                                          ''''####''''         
             ,#######,   #######,   ,#######,      ##                                
            ,#'     '#,  ##    ##  ,#'     '#,    #''#        ,####,    ,#,          
            ##       ##  ##   ,#'  ##            #'  '#       #'       ,# #          
            ##       ##  #######   ##           ,######,      #####,      #          
            '#,     ,#'  ##    ##  '#,     ,#' ,#      #,     #,   #      #          
             '#######'   ##     ##  '#######'  #'      '#     '####' #    #          



                #########################################################
                #                        -***-                          #
                #          Department of theory and spectroscopy        #
                #                                                       #
                #                      Frank Neese                      #
                #                                                       #
                #     Directorship, Architecture, Infrastructure        #
                #                    SHARK, DRIVERS                     #
                #        Core code/Algorithms in most modules           #
                #                                                       #
                #        Max Planck Institute fuer Kohlenforschung      #
                #                Kaiser Wilhelm Platz 1                 #
                #                 D-45470 Muelheim/Ruhr                 #
                #                      Germany                          #
                #                                                       #
                #                  All rights reserved                  #
                #                        -***-                          #
                #########################################################


                         Program Version 6.1.1  -  RELEASE   -
                                (GIT: $487d211c$)
                          ($2025-11-21 10:33:24 +0100$)


 With contributions from (in alphabetic order):
[Max-Planck-Institut fuer Kohlenforschung]                               
  Daniel Aravena         : Magnetic Suceptibility                        
  Michael Atanasov       : Ab Initio Ligand Field Theory (pilot matlab implementation)
  Alexander A. Auer      : GIAO ZORA, VPT2 properties, NMR spectrum      
  Ute Becker             : All parallelization in ORCA, NUMFREQ, NUMCALC 
  Giovanni Bistoni       : ED, misc. LED, open-shell LED, HFLD           
  Dmytro Bykov           : pre 5.0 version of the SCF Hessian            
  Marcos Casanova-Páez   : Triplet and SCS-CIS(D). UHF-(DLPNO)-IP/EA/STEOM-CCSD. UHF-CVS-IP/STEOM-CCSD   
  Vijay G. Chilkuri      : MRCI spin determinant printing, contributions to CSF-ICE 
  Pauline Colinet        : FMM embedding                                 
  Dipayan Datta          : RHF DLPNO-CCSD density                        
  Achintya Kumar Dutta   : EOM-CC, STEOM-CC                              
  Nicolas Foglia         : Exact transition moments, OPA infrastructure, MCD improvements    
  Dmitry Ganyushin       : Spin-Orbit,Spin-Spin,Magnetic field MRCI      
  Miquel Garcia-Rates    : C-PCM and meta-GGA Hessian, CCSD/C-PCM, Gaussian charge scheme 
  Tiago L. C. Gouveia    : GS-ROHF, GS-ROCIS                             
  Yang Guo               : DLPNO-NEVPT2, F12-NEVPT2, CIM, IAO-localization        
  Andreas Hansen         : Spin unrestricted coupled pair/coupled cluster methods 
  Ingolf Harden          : AUTO-CI MPn and infrastructure                
  Benjamin Helmich-Paris : MC-RPA, TRAH-(SCF,CASSCF), AVAS, COSX integrals, SCF dyn. polar., MC-PDFT, srDFT 
  Lee Huntington         : MR-EOM, pCC                                   
  Robert Izsak           : Overlap fitted RIJCOSX, COSX-SCS-MP3, EOM     
  Riya Kayal             : Wick's Theorem for AUTO-CI, AUTO-CI UHF-CCSDT 
  Emily Kempfer          : AUTO-CI RHF CISDT and CCSDT, approximate NEVPT4
  Christian Kollmar      : KDIIS, OOCD, Brueckner-CCSD(T), CCSD density, CASPT2, CASPT2-K, improved NEVPT2 
  Axel Koslowski         : Symmetry handling                             
  Simone Kossmann        : meta-GGA functionals, TD-DFT gradient, OOMP2, (MP2 Hessian; deprecated post 5.0) 
  Lucas Lang             : DCDCAS, Hyperfine gauge corrections, ICE-SOC+SSC
  Marvin Lechner         : AUTO-CI (C++ implementation), FIC-MRCC        
  Spencer Leger          : CASSCF response                               
  Dagmar Lenk            : GEPOL surface, SMD, ORCA-2-JSON               
  Dimitrios Liakos       : Extrapolation schemes; Compound Job, Property file
  Dimitrios Manganas     : Further ROCIS development; embedding schemes. LFT, Crystal Embedding 
  Dimitrios Pantazis     : SARC Basis sets                               
  Anastasios Papadopoulos: AUTO-CI, single reference methods and gradients 
  Taras Petrenko         : pre 6.0 DFT Hessian and TD-DFT gradient,  ECA, NRVS 
  Petra Pikulova         : Analytic Raman intensities                    
  Peter Pinski           : DLPNO-MP2, DLPNO-MP2 Gradient                 
  Shashank Vittal Rao    : ES-AILFT, MagRelax                            
  Christoph Reimann      : Effective Core Potentials                     
  Marius Retegan         : Local ZFS, SOC                                
  Christoph Riplinger    : Optimizer, TS searches, QM/MM, DLPNO-CCSD(T), (RO)-DLPNO pert. Triples 
  Michael Roemelt        : Original ROCIS implementation, recursive CI coupling coefficients
  Masaaki Saitow         : Open-shell DLPNO-CCSD energy and density      
  Barbara Sandhoefer     : DKH picture change effects                    
  Yorick L. A. Schmerwitz: GMF and freeze-and-release deltaSCF, NEB S-IDPP initial path                    
  Kantharuban Sivalingam : CASSCF convergence/infrastructure, NEVPT2, NEVPT3, NEVPT4(SD), FIC-MRCI and CEPA variants
  Bernardo de Souza      : ESD, SOC TD-DFT                               
  Georgi L. Stoychev     : AutoAux, RI-MP2 NMR, DLPNO-MP2 response, X2C  
  Van Anh Tran           : RI-MP2 g-tensors                              
  Willem Van den Heuvel  : Paramagnetic NMR                              
  Zikuan Wang            : NOTCH, Electric field optimization            
  Frank Wennmohs         : Technical directorship and infrastructure     
  Hang Xu                : AUTO-CI-Response properties                   
                                                                         
[FACCTs GmbH]                                                            
  Markus Bursch, Nicolas Foglia, Miquel Garcia-Rates, Ingolf Harden, Hagen Neugebauer, Anastasios Papadopoulos, 
  Christoph Riplinger, Bernardo de Souza, Georgi L. Stoychev                                                    
                                                                 
  APM, various basis sets, CI-OPT, improved COSX, DLPNO-Multilevel,           
  DOCKER, DRACO, updates on ESD, Fragmentator, GOAT, IRC, LR-CPCM, L-BFGS, MBIS, meta-GGA TD-DFT gradient, ML-optimized integration grids, 
  MM, NACMEs, nearIR, NEB, NEB-TS, NL-DFT gradient (VV10), 2- and 3-layer-ONIOM, interface openCOSMO-RS, QMMM,   
  Crystal-QMMM, RESP, rigid body optimization, SF, symmetry and pop. for TD-DFT, various functionals, SOLVATOR                                   
                                                                         
[Other institutions]                                                     
  V. Asgeirsson          : NEB                                           
  Christoph Bannwarth    : sTDA-DFT, sTD-DFT, PBEh-3c, B97-3c, D3        
  Giovanni Bistoni       : ETS/NOCV, ADLD/ADEX, COVALED                  
  Martin Brehm           : Molecular dynamics                            
  Ronald Cardenas        : ETS/NOCV                                      
  Martina Colucci        : COVALED                                       
  Sebastian Ehlert       : rSCAN, r2SCAN, r2SCAN-3c, D4, dhf basis sets  
  Marvin Friede          : D4 for Fr, Ra, Ac-Lr                          
  Lars Goerigk           : TD-DFT with DH, B97 family of functionals     
  Stefan Grimme          : VdW corrections, initial TS optimization, DFT functionals, gCP, sTDA/sTD-DF 
  Waldemar Hujo          : DFT-NL                                        
  H. Jonsson             : NEB                                           
  Holger Kruse           : gCP                                           
  Marcel Mueller         : wB97X-3c, vDZP basis set                      
  Hagen Neugebauer       : wr2SCAN, Native XTB                           
  Gianluca Regni         : ADLD/ADEX                                     
  Tobias Risthaus        : pre 6.0 range-separated hybrid DFT and stability analysis
  Lukas Wittmann         : regularized MP2, r2SCAN double-hybrids, wr2SCAN        
                                                                         
We gratefully acknowledge several colleagues who have allowed us to      
interface, adapt or use parts of their codes:                            
  Ed Valeev, F. Pavosevic, A. Kumar             : LibInt (2-el integral package), F12 methods 
  Garnet Chan, S. Sharma, J. Yang, R. Olivares  : DMRG                   
  Ulf Ekstrom                                   : XCFun DFT Library      
  Mihaly Kallay                                 : mrcc  (arbitrary order and MRCC methods)
  Frank Weinhold                                : gennbo (NPA and NBO analysis)           
  Simon Mueller                                 : openCOSMO-RS                            
  Christopher J. Cramer and Donald G. Truhlar   : smd solvation model                     
  S Lehtola, MJT Oliveira, MAL Marques          : LibXC Library                           
  Liviu Ungur et al                             : ANISO software                          


 Your calculation uses the libint2 library for the computation of 2-el integrals
 For citations please refer to: http://libint.valeyev.net

 Your ORCA version has been built with support for libXC version: 7.0.0
 For citations please refer to: https://libxc.gitlab.io

 This ORCA versions uses:
   CBLAS   interface :  Fast vector & matrix operations
   LAPACKE interface :  Fast linear algebra routines
   SCALAPACK package :  Parallel linear algebra routines
   Shared memory     :  Shared parallel matrices
   BLAS/LAPACK       :  OpenBLAS 0.3.29  USE64BITINT DYNAMIC_ARCH NO_AFFINITY Haswell SINGLE_THREADED
        Core in use  :  Haswell
   Copyright (c) 2011-2014, The OpenBLAS Project


  ***********************************
  * Starting time: Tue Jan 20 19:09:09 2026
  * Host name:     Maks
  * Process ID:    3243
  * Working dir.:  /home/maksy/Chemia_obliczeniowa/Cwiczenia5
  ***********************************

================================================================================

----- Orbital basis set information -----
Your calculation utilizes the basis: def2-TZVP
   F. Weigend and R. Ahlrichs, Phys. Chem. Chem. Phys. 7, 3297 (2005).

================================================================================
                                        WARNINGS
                       Please study these warnings very carefully!
================================================================================

WARNING: Gradients needed for Numerical Frequencies
  ===> : Setting RunTyp to EnGrad

WARNING: your system is open-shell and RHF/RKS was chosen
  ===> : WILL SWITCH to UHF/UKS


WARNING: The frozen-core approximation for MP2-gradient calculations is turned on by default.

WARNING: Post HF methods need fully converged wavefunctions
  ===> : Setting SCFConvForced true
         You can overwrite this default with %scf ConvForced false 


================================================================================
                                       INPUT FILE
================================================================================
NAME = atom_tlenu_numfreq.inp
|  1> ! MP2 def2-TZVP NumFreq
|  2> * xyz 0 3
|  3>  O 0.0000 0.0000 0.0000
|  4> *
|  5> 
|  6>                          ****END OF INPUT****
================================================================================

                     *******************************
                     * Energy+Gradient Calculation *
                     *******************************

---------------------------------
CARTESIAN COORDINATES (ANGSTROEM)
---------------------------------
  O      0.000000    0.000000    0.000000

----------------------------
CARTESIAN COORDINATES (A.U.)
----------------------------
  NO LB      ZA    FRAG     MASS         X           Y           Z
   0 O     8.0000    0    15.999    0.000000    0.000000    0.000000

--------------------------------
INTERNAL COORDINATES (ANGSTROEM)
--------------------------------
 O      0   0   0     0.000000000000     0.00000000     0.00000000

---------------------------
INTERNAL COORDINATES (A.U.)
---------------------------
 O      0   0   0     0.000000000000     0.00000000     0.00000000

---------------------
BASIS SET INFORMATION
---------------------
There are 1 groups of distinct atoms

 Group   1 Type O   : 11s6p2d1f contracted to 5s3p2d1f pattern {62111/411/11/1}

Atom   0O    basis set group =>   1
------------------------------------------------------------------------------
                             ORCA STARTUP CALCULATIONS
------------------------------------------------------------------------------
------------------------------------------------------------------------------
                   ___                                                        
                  /   \      - P O W E R E D   B Y -                         
                 /     \                                                     
                 |  |  |   _    _      __       _____    __    __             
                 |  |  |  | |  | |    /  \     |  _  \  |  |  /  |          
                  \  \/   | |  | |   /    \    | | | |  |  | /  /          
                 / \  \   | |__| |  /  /\  \   | |_| |  |  |/  /          
                |  |  |   |  __  | /  /__\  \  |    /   |      \           
                |  |  |   | |  | | |   __   |  |    \   |  |\   \          
                \     /   | |  | | |  |  |  |  | |\  \  |  | \   \       
                 \___/    |_|  |_| |__|  |__|  |_| \__\ |__|  \__/        
                                                                              
                      - O R C A' S   B I G   F R I E N D -                    
                                      &                                       
                       - I N T E G R A L  F E E D E R -                       
                                                                              
 v1 FN, 2020, v2 2021, v3 2022-2024                                           
------------------------------------------------------------------------------


----------------------
SHARK INTEGRAL PACKAGE
----------------------

Number of atoms                             ...      1
Number of basis functions                   ...     31
Number of shells                            ...     11
Maximum angular momentum                    ...      3
Integral batch strategy                     ... SHARK/LIBINT Hybrid
RI-J (if used) integral strategy            ... SPLIT-RIJ (Revised 2003 algorithm where possible)
Printlevel                                  ...      1
Contraction scheme used                     ... SEGMENTED contraction
Prescreening option                         ... SCHWARTZ
   Thresh                                   ... 2.500e-11
   Tcut                                     ... 2.500e-12
   Tpresel                                  ... 2.500e-12 
Coulomb Range Separation                    ... NOT USED
Exchange Range Separation                   ... NOT USED
Multipole approximations                    ... NOT USED
Finite Nucleus Model                        ... NOT USED
CABS basis                                  ... NOT available
Auxiliary Coulomb fitting basis             ... NOT available
Auxiliary J/K fitting basis                 ... NOT available
Auxiliary Correlation fitting basis         ... NOT available
Auxiliary 'external' fitting basis          ... NOT available

Checking pre-screening integrals            ... done (  0.0 sec) Dimension = 11
   => SHARK Basis and OBASIS are compatible. Storing Pre-screening
Shell pair information
Shell pair cut-off parameter TPreSel        ...   2.5e-12
Total number of shell pairs                 ...        66
Shell pairs after pre-screening             ...        66
Total number of primitive shell pairs       ...       232
Primitive shell pairs kept                  ...       232
          la=0 lb=0:     15 shell pairs
          la=1 lb=0:     15 shell pairs
          la=1 lb=1:      6 shell pairs
          la=2 lb=0:     10 shell pairs
          la=2 lb=1:      6 shell pairs
          la=2 lb=2:      3 shell pairs
          la=3 lb=0:      5 shell pairs
          la=3 lb=1:      3 shell pairs
          la=3 lb=2:      2 shell pairs
          la=3 lb=3:      1 shell pairs

Checking whether 4 symmetric matrices of dimension 31 fit in memory
:Max Core in MB      =   4096.00
 MB in use           =      1.92
 MB left             =   4094.08
 MB needed           =      0.02
 Data fit in memory  = YES
Calculating Nuclear repulsion               ... done (  0.0 sec) ENN=      0.000000000000 Eh

Diagonalization of the overlap matrix:
Smallest eigenvalue                        ... 3.025e-02
Time for diagonalization                   ...    0.000 sec
Threshold for overlap eigenvalues          ... 1.000e-07
Number of eigenvalues below threshold      ... 0
Time for construction of square roots      ...    0.000 sec
Total time needed                          ...    0.000 sec

-------------------
DFT GRID GENERATION
-------------------

General Integration Accuracy     IntAcc      ... 4.388
Radial Grid Type                 RadialGrid  ... OptM3 with GC (2021)
Angular Grid (max. ang.)         AngularGrid ... 4 (Lebedev-302)
Angular grid pruning method      GridPruning ... 4 (adaptive)
Weight generation scheme         WeightScheme... mBecke (2022)
Basis function cutoff            BFCut       ... 1.0000e-11
Integration weight cutoff        WCut        ... 1.0000e-14
Partially contracted basis set               ... off
Rotationally invariant grid construction     ... off
Angular grids for H and He will be reduced by one unit

Total number of grid points                  ...     6136
Total number of batches                      ...       96
Average number of points per batch           ...       63
Average number of grid points per atom       ...     6136
Grids setup in   0.0 sec
Initializing property integral containers    ... done (  0.0 sec)

SHARK setup successfully completed in   0.1 seconds

Maximum memory used throughout the entire STARTUP-calculation: 12.5 MB
-------------------------------------------------------------------------------
                                 ORCA GUESS
                   Start orbitals & Density for SCF / CASSCF
-------------------------------------------------------------------------------

------------
SCF SETTINGS
------------
Hamiltonian:
 Ab initio Hamiltonian  Method          .... Hartree-Fock(GTOs)


General Settings:
 Integral files         IntName         .... atom_tlenu_numfreq
 Hartree-Fock type      HFTyp           .... UHF
 Total Charge           Charge          ....    0
 Multiplicity           Mult            ....    3
 Number of Electrons    NEL             ....    8
 Basis Dimension        Dim             ....   31
 Nuclear Repulsion      ENuc            ....      0.0000000000 Eh

Convergence Acceleration:
 AO-DIIS                CNVDIIS         .... on
   Start iteration      DIISMaxIt       ....    12
   Startup error        DIISStart       ....  0.200000
   # of expansion vecs  DIISMaxEq       ....     5
   Bias factor          DIISBfac        ....   1.050
   Max. coefficient     DIISMaxC        ....  10.000
 MO-DIIS                CNVKDIIS        .... off
 Trust-Rad. Augm. Hess. CNVTRAH         .... auto
   Auto Start mean grad. ratio tolernc. ....  1.125000
   Auto Start start iteration           ....    50
   Auto Start num. interpolation iter.  ....    10
   Max. Number of Micro iterations      ....    24
   Max. Number of Macro iterations      .... Maxiter - #DIIS iter
   Number of Davidson start vectors     ....     2
   Converg. threshold    (grad. norm)   ....   1.000e-05
   Grad. Scal. Fac. for Micro threshold ....   0.100
   Minimum threshold for Micro iter.    ....   1.000e-02
   NR start threshold (gradient norm)   ....   1.000e-04
   Initial trust radius                 ....   0.400
   Minimum AH scaling param. (alpha)    ....   1.000
   Maximum AH scaling param. (alpha)    .... 1000.000
   Quad. conv. algorithm                .... NR
   White noise on init. David. guess    .... on
   Maximum white noise                  ....   0.010
   Pseudo random numbers                .... off
   Inactive MOs                         .... canonical
   Orbital update algorithm             .... Taylor
   Preconditioner                       .... Diag
   Full preconditioner red. dimension   ....   250
 SOSCF                 CNVSOSCF           .... on
   Start iteration     SOSCFMaxIt         ....   150
   Startup grad/error  SOSCFStart         ....  0.003300
   Hessian update      SOSCFHessUp        .... L-BFGS
   Autom. constraints  SOSCFAutoConstrain .... off
 Level Shifting         CNVShift        .... on
   Level shift para.    LevelShift      ....    0.2500
   Turn off err/grad.   ShiftErr        ....    0.0010
 Zerner damping         CNVZerner       .... off
 Static damping         CNVDamp         .... on
   Fraction old density DampFac         ....    0.7000
   Max. Damping (<1)    DampMax         ....    0.9800
   Min. Damping (>=0)   DampMin         ....    0.0000
   Turn off err/grad.   DampErr         ....    0.1000

SCF Procedure:
 Maximum # iterations   MaxIter         ....   125
 SCF integral mode      SCFMode         .... Direct
   Integral package                     .... SHARK and LIBINT hybrid scheme
 Reset frequency        DirectResetFreq ....    20
 Integral Threshold     Thresh          ....  2.500e-11 Eh
 Primitive CutOff       TCut            ....  2.500e-12 Eh

Convergence Tolerance:
 Convergence Check Mode ConvCheckMode   .... Total+1el-Energy
 Convergence forced     ConvForced      .... 1
 Energy Change          TolE            ....  1.000e-08 Eh
 1-El. energy change                    ....  1.000e-05 Eh
 Orbital Gradient       TolG            ....  1.000e-05
 Orbital Rotation angle TolX            ....  1.000e-05
 DIIS Error             TolErr          ....  5.000e-07

------------------------------
INITIAL GUESS: MODEL POTENTIAL
------------------------------
Loading Hartree-Fock densities                     ... done
Calculating cut-offs                               ... done
Initializing the effective Hamiltonian             ... done
Setting up the integral package (SHARK)            ... done
Starting the Coulomb interaction                   ... done (   0.0 sec)
Making the grid                                    ... done (   0.0 sec)
Mapping shells                                     ... done
Starting the XC term evaluation                    ... done (   0.0 sec)
Transforming the Hamiltonian                       ... done (   0.0 sec)
Diagonalizing the Hamiltonian                      ... done (   0.0 sec)
Back transforming the eigenvectors                 ... done (   0.0 sec)
Now organizing SCF variables                       ... done
                      ------------------
                      INITIAL GUESS DONE (   0.0 sec)
                      ------------------
             **** ENERGY FILE WAS UPDATED (atom_tlenu_numfreq.en.tmp) ****
Finished Guess after   0.0 sec
Maximum memory used throughout the entire GUESS-calculation: 5.6 MB

-------------------------------------------------------------------------------------------
                                      ORCA LEAN-SCF
                              memory conserving SCF solver
-------------------------------------------------------------------------------------------

----------------------------------------D-I-I-S--------------------------------------------
Iteration    Energy (Eh)           Delta-E    RMSDP     MaxDP     DIISErr   Damp  Time(sec)
-------------------------------------------------------------------------------------------
               ***  Starting incremental Fock matrix formation  ***
    1    -74.7968741118093448     0.00e+00  9.39e-04  8.97e-03  1.75e-01  0.700   0.0
    2    -74.8013779126737290    -4.50e-03  8.34e-04  8.14e-03  1.24e-01  0.700   0.0
                               ***Turning on AO-DIIS***
    3    -74.8049173154096820    -3.54e-03  7.69e-04  7.60e-03  8.80e-02  0.700   0.0
    4    -74.8076339879052341    -2.72e-03  2.03e-03  1.97e-02  6.17e-02  0.000   0.0
    5    -74.8154361368737852    -7.80e-03  2.74e-04  1.96e-03  4.83e-03  0.000   0.0
                              *** Initializing SOSCF ***
---------------------------------------S-O-S-C-F--------------------------------------
Iteration    Energy (Eh)           Delta-E    RMSDP     MaxDP     MaxGrad    Time(sec)
--------------------------------------------------------------------------------------
    6    -74.8155659363080332    -1.30e-04  2.12e-04  1.48e-03  2.29e-03     0.0
               *** Restarting incremental Fock matrix formation ***
    7    -74.8156157900877616    -4.99e-05  6.65e-05  5.45e-04  1.55e-03     0.0
    8    -74.8156221796733689    -6.39e-06  7.84e-05  6.01e-04  8.60e-04     0.0
    9    -74.8156250716604063    -2.89e-06  3.88e-06  3.64e-05  1.02e-04     0.0
   10    -74.8156250886510179    -1.70e-08  1.84e-06  1.89e-05  3.08e-05     0.0
   11    -74.8156250911488598    -2.50e-09  2.14e-07  2.44e-06  5.95e-06     0.0
                 **** Energy Check signals convergence ****

               *****************************************************
               *                     SUCCESS                       *
               *           SCF CONVERGED AFTER  11 CYCLES          *
               *****************************************************

             **** ENERGY FILE WAS UPDATED (atom_tlenu_numfreq.en.tmp) ****

----------------
TOTAL SCF ENERGY
----------------

Total Energy       :        -74.81562509121989 Eh           -2035.83666 eV

Components:
Nuclear Repulsion  :          0.00000000000000 Eh               0.00000 eV
Electronic Energy  :        -74.81562509121989 Eh           -2035.83666 eV
One Electron Energy:       -103.25837093526107 Eh           -2809.80312 eV
Two Electron Energy:         28.44274584404118 Eh             773.96646 eV

Virial components:
Potential Energy   :       -149.63758122648511 Eh           -4071.84559 eV
Kinetic Energy     :         74.82195613526521 Eh            2036.00894 eV
Virial Ratio       :          1.99991538521081

---------------
SCF CONVERGENCE
---------------

  Last Energy change         ...    2.4978e-09  Tolerance :   1.0000e-08
  Last MAX-Density change    ...    2.4402e-06  Tolerance :   1.0000e-07
  Last RMS-Density change    ...    2.1408e-07  Tolerance :   5.0000e-09
  Last DIIS Error            ...    2.2895e-03  Tolerance :   5.0000e-07
  Last Orbital Gradient      ...    5.9470e-06  Tolerance :   1.0000e-05
  Last Orbital Rotation      ...    4.0220e-06  Tolerance :   1.0000e-05


----------------------
UHF SPIN CONTAMINATION
----------------------

Expectation value of <S**2>     :     2.008227
Ideal value S*(S+1) for S=1.0   :     2.000000
Deviation                       :     0.008227

----------------
ORBITAL ENERGIES
----------------
                 SPIN UP ORBITALS
  NO   OCC          E(Eh)            E(eV) 
   0   1.0000     -20.706002      -563.4390 
   1   1.0000      -1.416246       -38.5380 
   2   1.0000      -0.709256       -19.2998 
   3   1.0000      -0.709256       -19.2998 
   4   1.0000      -0.610024       -16.5996 
   5   0.0000       0.471856        12.8399 
   6   0.0000       0.526319        14.3219 
   7   0.0000       0.526319        14.3219 
   8   0.0000       0.561782        15.2869 
   9   0.0000       1.609728        43.8029 
  10   0.0000       1.609728        43.8029 
  11   0.0000       1.658897        45.1409 
  12   0.0000       1.658897        45.1409 
  13   0.0000       1.676162        45.6107 
  14   0.0000       2.792613        75.9909 
  15   0.0000       2.792613        75.9909 

                 SPIN DOWN ORBITALS
  NO   OCC          E(Eh)            E(eV) 
   0   1.0000     -20.626701      -561.2811 
   1   1.0000      -1.074501       -29.2386 
   2   1.0000      -0.520892       -14.1742 
   3   0.0000       0.099938         2.7194 
   4   0.0000       0.099938         2.7194 
   5   0.0000       0.515970        14.0403 
   6   0.0000       0.584661        15.9094 
   7   0.0000       0.675258        18.3747 
   8   0.0000       0.675258        18.3747 
   9   0.0000       1.738635        47.3107 
  10   0.0000       1.746267        47.5183 
  11   0.0000       1.746267        47.5183 
  12   0.0000       1.773467        48.2585 
  13   0.0000       1.773467        48.2585 
*Only the first 10 virtual orbitals were printed.

                    ********************************
                    * MULLIKEN POPULATION ANALYSIS *
                    ********************************

--------------------------------------------
MULLIKEN ATOMIC CHARGES AND SPIN POPULATIONS
--------------------------------------------
   0 O :   -0.000000    2.000000
Sum of atomic charges         :   -0.0000000
Sum of atomic spin populations:    2.0000000

-----------------------------------------------------
MULLIKEN REDUCED ORBITAL CHARGES AND SPIN POPULATIONS
-----------------------------------------------------
CHARGE
  0 O s       :     3.998617  s :     3.998617
      pz      :     1.499931  p :     3.999790
      px      :     0.999941
      py      :     1.499918
      dz2     :     0.000086  d :     0.001383
      dxz     :     0.000000
      dyz     :     0.001037
      dx2y2   :     0.000259
      dxy     :     0.000000
      f0      :     0.000028  f :     0.000210
      f+1     :     0.000008
      f-1     :     0.000061
      f+2     :     0.000048
      f-2     :     0.000037
      f+3     :     0.000014
      f-3     :     0.000014


SPIN
  0 O s       :     0.000424  s :     0.000424
      pz      :     0.499920  p :     1.999793
      px      :     0.999941
      py      :     0.499932
      dz2     :    -0.000027  d :    -0.000424
      dxz     :    -0.000000
      dyz     :    -0.000318
      dx2y2   :    -0.000080
      dxy     :    -0.000000
      f0      :     0.000028  f :     0.000207
      f+1     :     0.000008
      f-1     :     0.000060
      f+2     :     0.000046
      f-2     :     0.000037
      f+3     :     0.000014
      f-3     :     0.000014



                     *******************************
                     * LOEWDIN POPULATION ANALYSIS *
                     *******************************

-------------------------------------------
LOEWDIN ATOMIC CHARGES AND SPIN POPULATIONS
-------------------------------------------
   0 O :    0.000000    2.000000

----------------------------------------------------
LOEWDIN REDUCED ORBITAL CHARGES AND SPIN POPULATIONS
----------------------------------------------------
CHARGE
  0 O s       :     3.998617  s :     3.998617
      pz      :     1.499931  p :     3.999790
      px      :     0.999941
      py      :     1.499918
      dz2     :     0.000086  d :     0.001383
      dxz     :     0.000000
      dyz     :     0.001037
      dx2y2   :     0.000259
      dxy     :     0.000000
      f0      :     0.000028  f :     0.000210
      f+1     :     0.000008
      f-1     :     0.000061
      f+2     :     0.000048
      f-2     :     0.000037
      f+3     :     0.000014
      f-3     :     0.000014


SPIN
  0 O s       :     0.000424  s :     0.000424
      pz      :     0.499920  p :     1.999793
      px      :     0.999941
      py      :     0.499932
      dz2     :    -0.000027  d :    -0.000424
      dxz     :    -0.000000
      dyz     :    -0.000318
      dx2y2   :    -0.000080
      dxy     :    -0.000000
      f0      :     0.000028  f :     0.000207
      f+1     :     0.000008
      f-1     :     0.000060
      f+2     :     0.000046
      f-2     :     0.000037
      f+3     :     0.000014
      f-3     :     0.000014



                      *****************************
                      * MAYER POPULATION ANALYSIS *
                      *****************************

  NA   - Mulliken gross atomic population
  ZA   - Total nuclear charge
  QA   - Mulliken gross atomic charge
  VA   - Mayer's total valence
  BVA  - Mayer's bonded valence
  FA   - Mayer's free valence

  ATOM       NA         ZA         QA         VA         BVA        FA
  0 O      8.0000     8.0000    -0.0000     2.0165     0.0000     2.0165

  Mayer bond orders larger than 0.100000
  => no bond orders to print

-------
TIMINGS
-------

Total SCF time: 0 days 0 hours 0 min 0 sec 

Total time                  ....       0.125 sec
Sum of individual times     ....       0.110 sec  ( 87.6%)

SCF preparation             ....       0.025 sec  ( 19.8%)
Fock matrix formation       ....       0.073 sec  ( 57.9%)
  Startup                   ....       0.000 sec  (  0.5% of F)
  Coulomb+Exchange Fock     ....       0.075 sec  (104.1% of F)
Diagonalization             ....       0.000 sec  (  0.0%)
Density matrix formation    ....       0.004 sec  (  3.3%)
Total Energy calculation    ....       0.000 sec  (  0.2%)
Population analysis         ....       0.001 sec  (  0.7%)
Orbital Transformation      ....       0.001 sec  (  1.0%)
Orbital Orthonormalization  ....       0.000 sec  (  0.0%)
DIIS solution               ....       0.003 sec  (  2.8%)
SOSCF solution              ....       0.002 sec  (  1.7%)
Finished LeanSCF after   0.1 sec

Maximum memory used throughout the entire LEANSCF-calculation: 11.3 MB

------------------------------------------------------------------------------
                                ORCA  MP2 
------------------------------------------------------------------------------

Freezing NCore=2 chemical core electrons
MP2 will be done in the AO integral direct mode
The Q1-step will be done using symmetric double matrices
Dimension of the basis                    ...   31
Memory devoted for MP2                    ... 4096 MB   
Memory needed for all in one shot         ...    1 MB
Number of MOs that can be treated together... 34915      
MP2 density construction                  ... relaxed
The MP2 gradient is requested => amplitudes will be stored on disk
Total number of MOs              ...    4
Number of MOs treated per batch  ...    4 
Number of batches necessary      ...    1 
OPERATORS   0/  0 PASS   0
OPERATORS   0/  1 PASS   0
Total number of MOs              ...    4
Number of MOs treated per batch  ...    2 
Number of batches necessary      ...    1 
OPERATORS   1/  0 PASS   0
OPERATORS   1/  1 PASS   0

Correlation energy components
 E2 and T2 for alpha/alpha pairs :     -0.030712676 Eh
 E2 and T2 for beta/beta   pairs :     -0.004175268 Eh
 E2 and T2 for alpha/beta  pairs :     -0.106780402 Eh

-----------------------------------------------
 MP2 CORRELATION ENERGY   :     -0.141668346 Eh
-----------------------------------------------


---------------------
MP2 DENSITY FORMATION
---------------------

Completing the external part of the density      ... done
Storing the unrelaxed density                    ... done

Calculating G(D)                                 ... done
Completing the Lagrangian                        ... done
Solving the Z-vector equations                   ... 
-------------------
SHARK CP-SCF DRIVER
-------------------

Dimension of the orbital basis          ...     31
Dimension of the CPSCF-problem          ...    214
Number of operators                     ...      2
Max. number of iterations               ...    128
Convergence Tolerance                   ... 1.0e-04
Number of perturbations                 ...      1
Perturbation type                       ... REAL

----------------------------
POPLE LINEAR EQUATION SOLVER
----------------------------

  ITERATION   0:   ||err||_max =   7.2426e-03 (   0.0 sec)
  ITERATION   1:   ||err||_max =   1.0515e-03 (   0.0 sec)
  ITERATION   2:   ||err||_max =   2.7645e-04 (   0.0 sec)
  ITERATION   3:   ||err||_max =   8.3535e-05 (   0.0 sec)
                                                 ... done
Finalizing the relaxed density                   ... done
Transforming P to the AO basis                   ... done
Storing the relaxed density                      ... done

------------------------------------
ENERGY WEIGHTED DENSITY FINALIZATION
------------------------------------

Gathering the parts of the W-matrix              ...                                                                                                           done
Forming the Z-density                            ... done
Transforming Z to the AO basis                   ... done
Calculating G(Z)                                 ... done
Finalizing the W-matrix                          ...                                                                                                           done
Transforming W to the AO basis and storing       ... done

                *********************************************
                * UNRELAXED MP2 DENSITY POPULATION ANALYSIS *
                *********************************************

------------------------------------------------------------------------------
                           ORCA POPULATION ANALYSIS
------------------------------------------------------------------------------
Input electron density              ... atom_tlenu_numfreq.pmp2ur
Input spin density                  ... atom_tlenu_numfreq.rmp2ur
BaseName (.gbw .S,...)              ... atom_tlenu_numfreq

                    ********************************
                    * MULLIKEN POPULATION ANALYSIS *
                    ********************************

------------------------------------------
MULLIKEN ATOMIC CHARGES AND SPIN DENSITIES
------------------------------------------
   0 O :   -0.000000    2.000000
Sum of atomic charges       :   -0.0000000
Sum of atomic spin densities:    2.0000000

---------------------------------------------------
MULLIKEN REDUCED ORBITAL CHARGES AND SPIN DENSITIES
---------------------------------------------------
CHARGE
  0 O s       :     3.989203  s :     3.989203
      pz      :     1.494862  p :     3.989113
      px      :     0.999402
      py      :     1.494849
      dz2     :     0.003990  d :     0.019790
      dxz     :     0.003682
      dyz     :     0.004618
      dx2y2   :     0.003817
      dxy     :     0.003682
      f0      :     0.000292  f :     0.001895
      f+1     :     0.000245
      f-1     :     0.000333
      f+2     :     0.000278
      f-2     :     0.000274
      f+3     :     0.000237
      f-3     :     0.000237

SPIN
  0 O s       :     0.007134  s :     0.007134
      pz      :     0.495628  p :     1.983327
      px      :     0.992059
      py      :     0.495640
      dz2     :     0.001548  d :     0.008748
      dxz     :     0.002063
      dyz     :     0.001072
      dx2y2   :     0.002001
      dxy     :     0.002063
      f0      :     0.000115  f :     0.000790
      f+1     :     0.000101
      f-1     :     0.000133
      f+2     :     0.000120
      f-2     :     0.000117
      f+3     :     0.000102
      f-3     :     0.000102


                     *******************************
                     * LOEWDIN POPULATION ANALYSIS *
                     *******************************

-----------------------------------------
LOEWDIN ATOMIC CHARGES AND SPIN DENSITIES
-----------------------------------------
   0 O :    0.000000    2.000000

--------------------------------------------------
LOEWDIN REDUCED ORBITAL CHARGES AND SPIN DENSITIES
--------------------------------------------------
CHARGE
  0 O s       :     3.989203  s :     3.989203
      pz      :     1.494862  p :     3.989113
      px      :     0.999402
      py      :     1.494849
      dz2     :     0.003990  d :     0.019790
      dxz     :     0.003682
      dyz     :     0.004618
      dx2y2   :     0.003817
      dxy     :     0.003682
      f0      :     0.000292  f :     0.001895
      f+1     :     0.000245
      f-1     :     0.000333
      f+2     :     0.000278
      f-2     :     0.000274
      f+3     :     0.000237
      f-3     :     0.000237

SPIN
  0 O s       :     0.007134  s :     0.007134
      pz      :     0.495628  p :     1.983327
      px      :     0.992059
      py      :     0.495640
      dz2     :     0.001548  d :     0.008748
      dxz     :     0.002063
      dyz     :     0.001072
      dx2y2   :     0.002001
      dxy     :     0.002063
      f0      :     0.000115  f :     0.000790
      f+1     :     0.000101
      f-1     :     0.000133
      f+2     :     0.000120
      f-2     :     0.000117
      f+3     :     0.000102
      f-3     :     0.000102


                      *****************************
                      * MAYER POPULATION ANALYSIS *
                      *****************************

  NA   - Mulliken gross atomic population
  ZA   - Total nuclear charge
  QA   - Mulliken gross atomic charge
  VA   - Mayer's total valence
  BVA  - Mayer's bonded valence
  FA   - Mayer's free valence

  ATOM       NA         ZA         QA         VA         BVA        FA
  0 O      8.0000     8.0000    -0.0000     2.1913     0.0000     2.1913

  => No bond orders to print


                *******************************************
                * RELAXED MP2 DENSITY POPULATION ANALYSIS *
                *******************************************

------------------------------------------------------------------------------
                           ORCA POPULATION ANALYSIS
------------------------------------------------------------------------------
Input electron density              ... atom_tlenu_numfreq.pmp2re
Input spin density                  ... atom_tlenu_numfreq.rmp2re
BaseName (.gbw .S,...)              ... atom_tlenu_numfreq

                    ********************************
                    * MULLIKEN POPULATION ANALYSIS *
                    ********************************

------------------------------------------
MULLIKEN ATOMIC CHARGES AND SPIN DENSITIES
------------------------------------------
   0 O :   -0.000000    2.000000
Sum of atomic charges       :   -0.0000000
Sum of atomic spin densities:    2.0000000

---------------------------------------------------
MULLIKEN REDUCED ORBITAL CHARGES AND SPIN DENSITIES
---------------------------------------------------
CHARGE
  0 O s       :     3.989852  s :     3.989852
      pz      :     1.494864  p :     3.989118
      px      :     0.999402
      py      :     1.494852
      dz2     :     0.003950  d :     0.019140
      dxz     :     0.003682
      dyz     :     0.004131
      dx2y2   :     0.003695
      dxy     :     0.003682
      f0      :     0.000291  f :     0.001890
      f+1     :     0.000245
      f-1     :     0.000331
      f+2     :     0.000276
      f-2     :     0.000273
      f+3     :     0.000237
      f-3     :     0.000237

SPIN
  0 O s       :     0.006736  s :     0.006736
      pz      :     0.495628  p :     1.983327
      px      :     0.992060
      py      :     0.495640
      dz2     :     0.001573  d :     0.009147
      dxz     :     0.002063
      dyz     :     0.001371
      dx2y2   :     0.002076
      dxy     :     0.002063
      f0      :     0.000115  f :     0.000790
      f+1     :     0.000101
      f-1     :     0.000133
      f+2     :     0.000121
      f-2     :     0.000117
      f+3     :     0.000102
      f-3     :     0.000102


                     *******************************
                     * LOEWDIN POPULATION ANALYSIS *
                     *******************************

-----------------------------------------
LOEWDIN ATOMIC CHARGES AND SPIN DENSITIES
-----------------------------------------
   0 O :    0.000000    2.000000

--------------------------------------------------
LOEWDIN REDUCED ORBITAL CHARGES AND SPIN DENSITIES
--------------------------------------------------
CHARGE
  0 O s       :     3.989852  s :     3.989852
      pz      :     1.494864  p :     3.989118
      px      :     0.999402
      py      :     1.494852
      dz2     :     0.003950  d :     0.019140
      dxz     :     0.003682
      dyz     :     0.004131
      dx2y2   :     0.003695
      dxy     :     0.003682
      f0      :     0.000291  f :     0.001890
      f+1     :     0.000245
      f-1     :     0.000331
      f+2     :     0.000276
      f-2     :     0.000273
      f+3     :     0.000237
      f-3     :     0.000237

SPIN
  0 O s       :     0.006736  s :     0.006736
      pz      :     0.495628  p :     1.983327
      px      :     0.992060
      py      :     0.495640
      dz2     :     0.001573  d :     0.009147
      dxz     :     0.002063
      dyz     :     0.001371
      dx2y2   :     0.002076
      dxy     :     0.002063
      f0      :     0.000115  f :     0.000790
      f+1     :     0.000101
      f-1     :     0.000133
      f+2     :     0.000121
      f-2     :     0.000117
      f+3     :     0.000102
      f-3     :     0.000102


                      *****************************
                      * MAYER POPULATION ANALYSIS *
                      *****************************

  NA   - Mulliken gross atomic population
  ZA   - Total nuclear charge
  QA   - Mulliken gross atomic charge
  VA   - Mayer's total valence
  BVA  - Mayer's bonded valence
  FA   - Mayer's free valence

  ATOM       NA         ZA         QA         VA         BVA        FA
  0 O      8.0000     8.0000    -0.0000     2.1855     0.0000     2.1855

  => No bond orders to print


----------------------------------
MP2 DERIVATIVE INTEGRAL GENERATION
----------------------------------

Input SCF Electron Density              ... atom_tlenu_numfreq.scfp
Input Correlated Electron Density       ... atom_tlenu_numfreq.pmp2re
Input Energy Weighted Density           ... atom_tlenu_numfreq.wmp2.tmp
Input Wavefunction Amplitudes           ... atom_tlenu_numfreq.mp2taa.tmp

Nuclear repulsion gradient              ... done (  0.0 sec)
HCore & Overlap gradient  (SHARK)       ... done (  0.0 sec)
Analytic two-electron gradient terms    ... 
  Batch handling in the gradient evaluation:
  General contraction                   ... not used
  Memory available                      ... 4093.7 MB
  Memory per occupied orbital in Q2     ...    0.0 MB
  Memory per occupied orbital in Q3     ...    0.0 MB
  Total memory requirement per |i>      ...    0.1 MB
  Number of orbitals treated per batch  ...      6
  Number of batches to be done          ...      1
done (  0.0 sec)

---------------------------------------
MP2 TOTAL ENERGY:      -74.957293437 Eh
---------------------------------------

The final MP2 gradient
  0:   0.00000000   0.00000000   0.00000000

-----------------------------------
NORM OF THE MP2 GRADIENT:  0.000000
-----------------------------------

Maximum memory used throughout the entire MP2-calculation: 13.3 MB

-------------------------   --------------------
FINAL SINGLE POINT ENERGY       -74.957293437098
-------------------------   --------------------


------------------------------------------------------------------------------
                              ORCA PROPERTY CALCULATIONS
------------------------------------------------------------------------------

GBWName                                 ... atom_tlenu_numfreq.gbw
Number of atoms                         ...      1
Number of basis functions               ...     31
Max core memory                         ...   4096 MB

Electric properties:
Dipole moment                           ... YES
Quadrupole moment                       ...  NO
Static polarizability (Dipole/Dipole)   ...  NO
Static polarizability (Dipole/Quad.)    ...  NO
Static polarizability (Quad./Quad.)     ...  NO
Static polarizability (Velocity)        ...  NO
Static hyperpolarizability              ...  NO

Atomic electric properties:
Dipole moment                           ...  NO
Quadrupole moment                       ...  NO
Static polarizability                   ...  NO

Choice of electric origin               ... Center of mass
Position of electric origin             ...     0.000000     0.000000     0.000000

General magnetic properties:
Magnetizability                         ...  NO

EPR properties:
g-Tensor (aka g-matrix)                 ...  NO
Zero-Field splitting spin-orbit         ...  NO
Zero-field splitting spin-spin          ...  NO
Hyperfine couplings                     ...  NO (   0 nuclei)
Quadrupole couplings                    ...  NO (   0 nuclei)
Contact density                         ...  NO (   0 nuclei)

NMR properties:
Chemical shifts                         ...  NO (   0 nuclei)
Spin-rotation constants                 ...  NO (   0 nuclei)
Spin-spin couplings                     ...  NO (   0 nuclei,    0 pairs)

Choice of magnetic origin               ... GIAO
Position of magnetic origin             ...     0.000000     0.000000     0.000000

Properties with geometric perturbations:
SCF Hessian                             ...  NO
IR spectrum                             ...  NO
VCD spectrum                            ...  NO
X-ray spectroscopy properties:
SCF XES/XAS/RIXS spectra                ...  NO

SCF SOC stabilization energy            ...  NO
Diagonal Born-Oppenheimer correction    ...  NO

-------------
DIPOLE MOMENT
-------------

Method             : SCF
Type of density    : Electron Density
Multiplicity       :   3
Irrep              :   0
Energy             :   -74.8156250912198857 Eh
Basis              : AO
                                X                 Y                 Z
Electronic contribution:      0.000000000       0.000000000       0.000000000
Nuclear contribution   :      0.000000000       0.000000000       0.000000000
                        -----------------------------------------
Total Dipole Moment    :      0.000000000       0.000000000       0.000000000
                        -----------------------------------------
Magnitude (a.u.)       :      0.000000000
Magnitude (Debye)      :      0.000000000



--------------------
Rotational spectrum 
--------------------
 
Rotational constants in cm-1:             0.000000             0.000000             0.000000 
Rotational constants in MHz :             0.000000             0.000000             0.000000 

Dipole components along the rotational axes: 
x,y,z [a.u.] :     0.000000     0.000000     0.000000 
x,y,z [Debye]:     0.000000     0.000000     0.000000 

 

-------------
DIPOLE MOMENT
-------------

Method             : MP2
Type of density    : Electron Density
Multiplicity       :   3
Level              : Unrelaxed density
Irrep              :   0
Energy             :     0.0000000000000000 Eh
Basis              : AO
                                X                 Y                 Z
Electronic contribution:      0.000000000       0.000000000       0.000000000
Nuclear contribution   :      0.000000000       0.000000000       0.000000000
                        -----------------------------------------
Total Dipole Moment    :      0.000000000       0.000000000       0.000000000
                        -----------------------------------------
Magnitude (a.u.)       :      0.000000000
Magnitude (Debye)      :      0.000000000



--------------------
Rotational spectrum 
--------------------
 
Rotational constants in cm-1:             0.000000             0.000000             0.000000 
Rotational constants in MHz :             0.000000             0.000000             0.000000 

Dipole components along the rotational axes: 
x,y,z [a.u.] :     0.000000     0.000000     0.000000 
x,y,z [Debye]:     0.000000     0.000000     0.000000 

 

-------------
DIPOLE MOMENT
-------------

Method             : MP2
Type of density    : Electron Density
Multiplicity       :   3
Level              : Relaxed density
Irrep              :   0
Energy             :     0.0000000000000000 Eh
Basis              : AO
                                X                 Y                 Z
Electronic contribution:      0.000000000       0.000000000       0.000000000
Nuclear contribution   :      0.000000000       0.000000000       0.000000000
                        -----------------------------------------
Total Dipole Moment    :      0.000000000       0.000000000       0.000000000
                        -----------------------------------------
Magnitude (a.u.)       :      0.000000000
Magnitude (Debye)      :      0.000000000



--------------------
Rotational spectrum 
--------------------
 
Rotational constants in cm-1:             0.000000             0.000000             0.000000 
Rotational constants in MHz :             0.000000             0.000000             0.000000 

Dipole components along the rotational axes: 
x,y,z [a.u.] :     0.000000     0.000000     0.000000 
x,y,z [Debye]:     0.000000     0.000000     0.000000 

 

Dipole moment calculation done in   0.0 sec 

Maximum memory used throughout the entire PROP-calculation: 2.2 MB

----------------------------------------------------------------------------
                           ORCA NUMERICAL FREQUENCIES
----------------------------------------------------------------------------

Number of atoms                ... 1
Central differences            ... used
Translation invariance         ... used
Number of displacements        ... 6 - 6
Numerical increment            ... 5.000e-03 bohr
IR-spectrum generation         ... on
Raman-spectrum generation      ... off
Surface Crossing Hessian       ... off

The output will be reduced. Please look at the following files:
SCF program output             ... >atom_tlenu_numfreq.lastscf
Integral program output        ... >atom_tlenu_numfreq.lastint
Gradient program output        ... >atom_tlenu_numfreq.lastgrad
Dipole moment program output   ... >atom_tlenu_numfreq.lastmom

	<< Calculating gradient on displaced geometry   1 (of   6) >>
	<< Calculating gradient on displaced geometry   2 (of   6) >>
	<< Calculating gradient on displaced geometry   3 (of   6) >>
	<< Calculating gradient on displaced geometry   4 (of   6) >>
	<< Calculating gradient on displaced geometry   5 (of   6) >>
	<< Calculating gradient on displaced geometry   6 (of   6) >>

-----------------------
VIBRATIONAL FREQUENCIES
-----------------------

Scaling factor for frequencies =  1.000000000  (already applied!)

     0:       0.00 cm**-1
     1:       0.00 cm**-1
     2:       0.00 cm**-1


------------
NORMAL MODES
------------

These modes are the Cartesian displacements weighted by the diagonal matrix
M(i,i)=1/sqrt(m[i]) where m[i] is the mass of the displaced atom
Thus, these vectors are normalized but *not* orthogonal

                  0          1          2    
      0       0.000000   0.000000   0.000000
      1       0.000000   0.000000   0.000000
      2       0.000000   0.000000   0.000000


-----------
IR SPECTRUM
-----------

 Mode   freq       eps      Int      T**2         TX        TY        TZ
       cm**-1   L/(mol*cm) km/mol    a.u.
----------------------------------------------------------------------------

* The epsilon (eps) is given for a Dirac delta lineshape.
** The dipole moment derivative (T) already includes vibrational overlap.

The total number of vibrations considered is 0


--------------------------
THERMOCHEMISTRY AT 298.15K
--------------------------

Temperature         ...   298.15 K
Pressure            ...     1.00 atm
Total Mass          ...    16.00 AMU
Quasi RRHO          ...     True
Cut-Off Frequency   ...     1.00 cm^-1
The molecule is recognized as being linear

Throughout the following assumptions are being made:
  (1) The electronic state is orbitally nondegenerate
      but the spin degeneracy is treated
  (2) There are no thermally accessible electronically excited states
  (3) Hindered rotations indicated by low frequency modes are not
      treated as such but are treated as vibrations and this may
      cause some error
  (4) All equations used are the standard statistical mechanics
      equations for an ideal gas
  (5) All vibrations are strictly harmonic


------------
INNER ENERGY
------------

The inner energy is: U= E(el) + E(ZPE) + E(vib) + E(rot) + E(trans)
    E(el)   - is the total energy from the electronic structure calculation
              = E(kin-el) + E(nuc-el) + E(el-el) + E(nuc-nuc)
    E(ZPE)  - the the zero temperature vibrational energy from the frequency calculation
    E(vib)  - the the finite temperature correction to E(ZPE) due to population
              of excited vibrational states
    E(rot)  - is the rotational thermal energy
    E(trans)- is the translational thermal energy

Summary of contributions to the inner energy U:
Electronic energy                ...    -74.95729344 Eh
Zero point energy                ...      0.00000000 Eh       0.00 kcal/mol
Thermal vibrational correction   ...      0.00000000 Eh       0.00 kcal/mol
Thermal rotational correction    ...      0.00000000 Eh       0.00 kcal/mol
Thermal translational correction ...      0.00141627 Eh       0.89 kcal/mol
-----------------------------------------------------------------------
Total thermal energy                    -74.95587717 Eh


Summary of corrections to the electronic energy:
(perhaps to be used in another calculation)
Total thermal correction                  0.00141627 Eh       0.89 kcal/mol
Non-thermal (ZPE) correction              0.00000000 Eh       0.00 kcal/mol
-----------------------------------------------------------------------
Total correction                          0.00141627 Eh       0.89 kcal/mol


--------
ENTHALPY
--------

The enthalpy is H = U + kB*T
                kB is Boltzmann's constant
Total thermal energy              ...    -74.95587717 Eh 
Thermal Enthalpy correction       ...      0.00094421 Eh       0.59 kcal/mol
-----------------------------------------------------------------------
Total Enthalpy                    ...    -74.95493296 Eh

The Z matrix contains a single non-dummy atom.

Note: Rotational entropy computed according to Herzberg 
Infrared and Raman Spectra, Chapter V,1, Van Nostrand Reinhold, 1945 
Point Group:  Kh, Symmetry Number:   1  
Rotational constants in cm-1:     0.000000     0.000000     0.000000 

Vibrational entropy computed according to the QRRHO of S. Grimme
Chem.Eur.J. 2012 18 9955 using a reference frequency of 100.0 cm-1


-------
ENTROPY
-------

The entropy contributions are T*S = T*(S(el)+S(vib)+S(rot)+S(trans))
     S(el)   - electronic entropy
     S(vib)  - vibrational entropy
     S(rot)  - rotational entropy
     S(trans)- translational entropy
The entropies will be listed as multiplied by the temperature to get
units of energy

Electronic entropy                ...      0.00103729 Eh      0.65 kcal/mol
Vibrational entropy               ...      0.00000000 Eh      0.00 kcal/mol
Rotational entropy                ...      0.00000000 Eh      0.00 kcal/mol
Translational entropy             ...      0.01627572 Eh     10.21 kcal/mol
-----------------------------------------------------------------------
Final entropy term                ...      0.01731301 Eh     10.86 kcal/mol


-------------------
GIBBS FREE ENERGY
-------------------

The Gibbs free energy is G = H - T*S

Total enthalpy                    ...    -74.95493296 Eh 
Total entropy correction          ...     -0.01731301 Eh    -10.86 kcal/mol
-----------------------------------------------------------------------
Final Gibbs free energy         ...    -74.97224597 Eh

For completeness - the Gibbs free energy minus the electronic energy
G-E(el)                           ...     -0.01495253 Eh     -9.38 kcal/mol



--------------------------------
SUGGESTED CITATIONS FOR THIS RUN
--------------------------------

Below you find a list of papers that are relevant to this ORCA run
We neither can nor want to force you to cite these papers, but we appreciate if you do
You receive ORCA, which is the product of decades of hard work by many enthusiastic individuals, for free
The only thing we kindly ask in return is that you cite our papers,
We deeply appreciate it, if you show your appreciation for ORCA by not just citing the generic ORCA reference.

Please note that relegating all ORCA citations to the supporting information does *not* help us.
SI sections are not indexed - citations you put there will not count into any citation statistics
But we need these citations in order to attract the funding resources that allow us to do what we are doing

Therefore, if you are a happy ORCA user, please consider citing a few of the papers listed below in the main body of your paper

In addition to the list printed below, the program has created the file atom_tlenu_numfreq.bibtex that contains the list in bibtex format
You can import this file easily into all common literature databanks and citation aid programs

It goes without saying that in many instances, there are alternative algorithms to achieve similar
results as the ones you have gotten from ORCA. It is, of course, also the case that in some instances
ORCA just re-implements algorithms worked out by others. We are fully aware of that and we are also
fully appreciative of our colleagues work. Hence this citation list should not be read as indicating
that the listed papers, which are focused on our own work, are the only ones worth citing. It simply
meant to make it easier for users to cite ORCA specific papers. It is not a substitute for doing your
own literature research and citing the relevant literature in a scientifically appropriate manner.

List of essential papers. We consider these as the minimum necessary citations

  1. Neese, F.
     Software update: the ORCA program system, version 6.0
     WIRES Comput. Molec. Sci. 2025 15(1), e70019
     doi.org/10.1002/wcms.70019

List of papers to cite with high priority. The work reported in these papers was absolutely
necessary for this run to complete.
Our perspective: the developers of density functionals and basis sets usually get cited in chemistry papers
Good! But without the algorithms to do something with them, the functionals or basis sets would not do anything.
Hence, in our opinion, the algorithm design and method developments papers are equally worthy of getting cited

  1. Neese, F.
     The SHARK Integral Generation and Digestion System
     J. Comp. Chem. 2022 44(3), 381
     doi.org/10.1002/jcc.26942

List of suggested additional citations. These are papers that are important in the 'surrounding' of 
of this run, or papers that preceded the highly important papers. If you like your results we are grateful for a citation.

  1. Neese, F.
     The ORCA program system
     WIRES Comput. Molec. Sci. 2012 2(1), 73-78
     doi.org/10.1002/wcms.81
  2. Neese, F.
     Software update: the ORCA program system, version 4.0
     WIRES Comput. Molec. Sci. 2018 8(1), 1-6
     doi.org/10.1002/wcms.1327
  3. Neese, F.; Wennmohs, F.; Becker, U.; Riplinger, C.
     The ORCA quantum chemistry program package
     J. Chem. Phys. 2020 152(22), 224108
     doi.org/10.1063/5.0004608
  4. Neese, F.
     Software update: The ORCA program system—Version 5.0
     WIRES Comput. Molec. Sci. 2022 12(1), e1606
     doi.org/10.1002/wcms.1606

List of optional additional citations

  1. Neese, F.
     Approximate second-order SCF convergence for spin unrestricted wavefunctions
     Chem. Phys. Lett. 2000 325(1-3), 93-98
     doi.org/10.1016/s0009-2614(00)00662-x

Timings for individual modules:

Sum of individual times          ...        5.773 sec (=   0.096 min)
Startup calculation              ...        0.146 sec (=   0.002 min)   2.5 %
SCF iterations                   ...        0.356 sec (=   0.006 min)   6.2 %
Property calculations            ...        0.036 sec (=   0.001 min)   0.6 %
MP2 module                       ...        0.394 sec (=   0.007 min)   6.8 %
Numerical frequency calculation  ...        4.841 sec (=   0.081 min)  83.9 %
                             ****ORCA TERMINATED NORMALLY****
TOTAL RUN TIME: 0 days 0 hours 0 minutes 5 seconds 408 msec
