
                                 *****************
                                 * O   R   C   A *
                                 *****************

                                            #,                                       
                                            ###                                      
                                            ####                                     
                                            #####                                    
                                            ######                                   
                                           ########,                                 
                                     ,,################,,,,,                         
                               ,,#################################,,                 
                          ,,##########################################,,             
                       ,#########################################, ''#####,          
                    ,#############################################,,   '####,        
                  ,##################################################,,,,####,       
                ,###########''''           ''''###############################       
              ,#####''   ,,,,##########,,,,          '''####'''          '####       
            ,##' ,,,,###########################,,,                        '##       
           ' ,,###''''                  '''############,,,                           
         ,,##''                                '''############,,,,        ,,,,,,###''
      ,#''                                            '''#######################'''  
     '                                                          ''''####''''         
             ,#######,   #######,   ,#######,      ##                                
            ,#'     '#,  ##    ##  ,#'     '#,    #''#        ,####,    ,#,          
            ##       ##  ##   ,#'  ##            #'  '#       #'       ,# #          
            ##       ##  #######   ##           ,######,      #####,      #          
            '#,     ,#'  ##    ##  '#,     ,#' ,#      #,     #,   #      #          
             '#######'   ##     ##  '#######'  #'      '#     '####' #    #          



                #########################################################
                #                        -***-                          #
                #          Department of theory and spectroscopy        #
                #                                                       #
                #                      Frank Neese                      #
                #                                                       #
                #     Directorship, Architecture, Infrastructure        #
                #                    SHARK, DRIVERS                     #
                #        Core code/Algorithms in most modules           #
                #                                                       #
                #        Max Planck Institute fuer Kohlenforschung      #
                #                Kaiser Wilhelm Platz 1                 #
                #                 D-45470 Muelheim/Ruhr                 #
                #                      Germany                          #
                #                                                       #
                #                  All rights reserved                  #
                #                        -***-                          #
                #########################################################


                         Program Version 6.1.1  -  RELEASE   -
                                (GIT: $487d211c$)
                          ($2025-11-21 10:33:24 +0100$)


 With contributions from (in alphabetic order):
[Max-Planck-Institut fuer Kohlenforschung]                               
  Daniel Aravena         : Magnetic Suceptibility                        
  Michael Atanasov       : Ab Initio Ligand Field Theory (pilot matlab implementation)
  Alexander A. Auer      : GIAO ZORA, VPT2 properties, NMR spectrum      
  Ute Becker             : All parallelization in ORCA, NUMFREQ, NUMCALC 
  Giovanni Bistoni       : ED, misc. LED, open-shell LED, HFLD           
  Dmytro Bykov           : pre 5.0 version of the SCF Hessian            
  Marcos Casanova-Páez   : Triplet and SCS-CIS(D). UHF-(DLPNO)-IP/EA/STEOM-CCSD. UHF-CVS-IP/STEOM-CCSD   
  Vijay G. Chilkuri      : MRCI spin determinant printing, contributions to CSF-ICE 
  Pauline Colinet        : FMM embedding                                 
  Dipayan Datta          : RHF DLPNO-CCSD density                        
  Achintya Kumar Dutta   : EOM-CC, STEOM-CC                              
  Nicolas Foglia         : Exact transition moments, OPA infrastructure, MCD improvements    
  Dmitry Ganyushin       : Spin-Orbit,Spin-Spin,Magnetic field MRCI      
  Miquel Garcia-Rates    : C-PCM and meta-GGA Hessian, CCSD/C-PCM, Gaussian charge scheme 
  Tiago L. C. Gouveia    : GS-ROHF, GS-ROCIS                             
  Yang Guo               : DLPNO-NEVPT2, F12-NEVPT2, CIM, IAO-localization        
  Andreas Hansen         : Spin unrestricted coupled pair/coupled cluster methods 
  Ingolf Harden          : AUTO-CI MPn and infrastructure                
  Benjamin Helmich-Paris : MC-RPA, TRAH-(SCF,CASSCF), AVAS, COSX integrals, SCF dyn. polar., MC-PDFT, srDFT 
  Lee Huntington         : MR-EOM, pCC                                   
  Robert Izsak           : Overlap fitted RIJCOSX, COSX-SCS-MP3, EOM     
  Riya Kayal             : Wick's Theorem for AUTO-CI, AUTO-CI UHF-CCSDT 
  Emily Kempfer          : AUTO-CI RHF CISDT and CCSDT, approximate NEVPT4
  Christian Kollmar      : KDIIS, OOCD, Brueckner-CCSD(T), CCSD density, CASPT2, CASPT2-K, improved NEVPT2 
  Axel Koslowski         : Symmetry handling                             
  Simone Kossmann        : meta-GGA functionals, TD-DFT gradient, OOMP2, (MP2 Hessian; deprecated post 5.0) 
  Lucas Lang             : DCDCAS, Hyperfine gauge corrections, ICE-SOC+SSC
  Marvin Lechner         : AUTO-CI (C++ implementation), FIC-MRCC        
  Spencer Leger          : CASSCF response                               
  Dagmar Lenk            : GEPOL surface, SMD, ORCA-2-JSON               
  Dimitrios Liakos       : Extrapolation schemes; Compound Job, Property file
  Dimitrios Manganas     : Further ROCIS development; embedding schemes. LFT, Crystal Embedding 
  Dimitrios Pantazis     : SARC Basis sets                               
  Anastasios Papadopoulos: AUTO-CI, single reference methods and gradients 
  Taras Petrenko         : pre 6.0 DFT Hessian and TD-DFT gradient,  ECA, NRVS 
  Petra Pikulova         : Analytic Raman intensities                    
  Peter Pinski           : DLPNO-MP2, DLPNO-MP2 Gradient                 
  Shashank Vittal Rao    : ES-AILFT, MagRelax                            
  Christoph Reimann      : Effective Core Potentials                     
  Marius Retegan         : Local ZFS, SOC                                
  Christoph Riplinger    : Optimizer, TS searches, QM/MM, DLPNO-CCSD(T), (RO)-DLPNO pert. Triples 
  Michael Roemelt        : Original ROCIS implementation, recursive CI coupling coefficients
  Masaaki Saitow         : Open-shell DLPNO-CCSD energy and density      
  Barbara Sandhoefer     : DKH picture change effects                    
  Yorick L. A. Schmerwitz: GMF and freeze-and-release deltaSCF, NEB S-IDPP initial path                    
  Kantharuban Sivalingam : CASSCF convergence/infrastructure, NEVPT2, NEVPT3, NEVPT4(SD), FIC-MRCI and CEPA variants
  Bernardo de Souza      : ESD, SOC TD-DFT                               
  Georgi L. Stoychev     : AutoAux, RI-MP2 NMR, DLPNO-MP2 response, X2C  
  Van Anh Tran           : RI-MP2 g-tensors                              
  Willem Van den Heuvel  : Paramagnetic NMR                              
  Zikuan Wang            : NOTCH, Electric field optimization            
  Frank Wennmohs         : Technical directorship and infrastructure     
  Hang Xu                : AUTO-CI-Response properties                   
                                                                         
[FACCTs GmbH]                                                            
  Markus Bursch, Nicolas Foglia, Miquel Garcia-Rates, Ingolf Harden, Hagen Neugebauer, Anastasios Papadopoulos, 
  Christoph Riplinger, Bernardo de Souza, Georgi L. Stoychev                                                    
                                                                 
  APM, various basis sets, CI-OPT, improved COSX, DLPNO-Multilevel,           
  DOCKER, DRACO, updates on ESD, Fragmentator, GOAT, IRC, LR-CPCM, L-BFGS, MBIS, meta-GGA TD-DFT gradient, ML-optimized integration grids, 
  MM, NACMEs, nearIR, NEB, NEB-TS, NL-DFT gradient (VV10), 2- and 3-layer-ONIOM, interface openCOSMO-RS, QMMM,   
  Crystal-QMMM, RESP, rigid body optimization, SF, symmetry and pop. for TD-DFT, various functionals, SOLVATOR                                   
                                                                         
[Other institutions]                                                     
  V. Asgeirsson          : NEB                                           
  Christoph Bannwarth    : sTDA-DFT, sTD-DFT, PBEh-3c, B97-3c, D3        
  Giovanni Bistoni       : ETS/NOCV, ADLD/ADEX, COVALED                  
  Martin Brehm           : Molecular dynamics                            
  Ronald Cardenas        : ETS/NOCV                                      
  Martina Colucci        : COVALED                                       
  Sebastian Ehlert       : rSCAN, r2SCAN, r2SCAN-3c, D4, dhf basis sets  
  Marvin Friede          : D4 for Fr, Ra, Ac-Lr                          
  Lars Goerigk           : TD-DFT with DH, B97 family of functionals     
  Stefan Grimme          : VdW corrections, initial TS optimization, DFT functionals, gCP, sTDA/sTD-DF 
  Waldemar Hujo          : DFT-NL                                        
  H. Jonsson             : NEB                                           
  Holger Kruse           : gCP                                           
  Marcel Mueller         : wB97X-3c, vDZP basis set                      
  Hagen Neugebauer       : wr2SCAN, Native XTB                           
  Gianluca Regni         : ADLD/ADEX                                     
  Tobias Risthaus        : pre 6.0 range-separated hybrid DFT and stability analysis
  Lukas Wittmann         : regularized MP2, r2SCAN double-hybrids, wr2SCAN        
                                                                         
We gratefully acknowledge several colleagues who have allowed us to      
interface, adapt or use parts of their codes:                            
  Ed Valeev, F. Pavosevic, A. Kumar             : LibInt (2-el integral package), F12 methods 
  Garnet Chan, S. Sharma, J. Yang, R. Olivares  : DMRG                   
  Ulf Ekstrom                                   : XCFun DFT Library      
  Mihaly Kallay                                 : mrcc  (arbitrary order and MRCC methods)
  Frank Weinhold                                : gennbo (NPA and NBO analysis)           
  Simon Mueller                                 : openCOSMO-RS                            
  Christopher J. Cramer and Donald G. Truhlar   : smd solvation model                     
  S Lehtola, MJT Oliveira, MAL Marques          : LibXC Library                           
  Liviu Ungur et al                             : ANISO software                          


 Your calculation uses the libint2 library for the computation of 2-el integrals
 For citations please refer to: http://libint.valeyev.net

 Your ORCA version has been built with support for libXC version: 7.0.0
 For citations please refer to: https://libxc.gitlab.io

 This ORCA versions uses:
   CBLAS   interface :  Fast vector & matrix operations
   LAPACKE interface :  Fast linear algebra routines
   SCALAPACK package :  Parallel linear algebra routines
   Shared memory     :  Shared parallel matrices
   BLAS/LAPACK       :  OpenBLAS 0.3.29  USE64BITINT DYNAMIC_ARCH NO_AFFINITY Haswell SINGLE_THREADED
        Core in use  :  Haswell
   Copyright (c) 2011-2014, The OpenBLAS Project


  ***********************************
  * Starting time: Tue Jan 20 20:53:52 2026
  * Host name:     Maks
  * Process ID:    4102
  * Working dir.:  /home/maksy/Chemia_obliczeniowa/Cwiczenia5/test1
  ***********************************

Your calculation utilizes the atom-pairwise dispersion correction
based on EEQ partial charges (D4)


Warning: RI is on but no J-basis has been assigned. Assigning Def2/J (nothing to worry about!)
================================================================================

----- Orbital basis set information -----
Your calculation utilizes the basis: ma-def2-SVP
   F. Weigend and R. Ahlrichs, Phys. Chem. Chem. Phys. 7, 3297 (2005).
   J. Zheng, X. Xu and D. G. Truhlar, Theor. Chem. Acc. 128, 295 (2011).

----- AuxJ basis set information -----
Your calculation utilizes the auxiliary basis: def2/J
   H-Rn: F. Weigend, Phys. Chem. Chem. Phys. 8, 1057 (2006).
   Fr-Lr: K. Eichkorn, F. Weigend, O. Treutler, R. Ahlrichs; Theor. Chem. Acc. 97, 119 (1997).

================================================================================
                                        WARNINGS
                       Please study these warnings very carefully!
================================================================================


WARNING: CIS/ROCIS methods need fully converged wavefunctions
  ===> : Setting SCFConvForced true
         You can overwrite this default with %scf ConvForced false 


================================================================================
                                       INPUT FILE
================================================================================
NAME = test2
|  1> ! wB97X-D4 ma-def2-SVP LargePrint
|  2> 
|  3> %tddft
|  4>   nroots 50
|  5> end
|  6> 
|  7> * xyz 0 1
|  8>  C         0.000000        0.000000        0.000000
|  9>  C        -1.500000        0.000000        0.000000
| 10>  C        -1.963525        1.426585        0.000000
| 11>  C        -0.749998        2.308262       -0.000250
| 12>  C         0.463526        1.426582       -0.000654
| 13>  H         1.414583        1.735596       -0.001254
| 14>  H        -2.087785       -0.809017       -0.000000
| 15>  H        -2.914581        1.735603        0.000142
| 16>  H        -0.749996        3.308262       -0.000162
| 17>  H         0.700000       -0.800000        0.000000
| 18>  Na       -0.750000        1.032286        2.300000
| 19> *
| 20> 
| 21>                          ****END OF INPUT****
================================================================================

                       ****************************
                       * Single Point Calculation *
                       ****************************

---------------------------------
CARTESIAN COORDINATES (ANGSTROEM)
---------------------------------
  C      0.000000    0.000000    0.000000
  C     -1.500000    0.000000    0.000000
  C     -1.963525    1.426585    0.000000
  C     -0.749998    2.308262   -0.000250
  C      0.463526    1.426582   -0.000654
  H      1.414583    1.735596   -0.001254
  H     -2.087785   -0.809017   -0.000000
  H     -2.914581    1.735603    0.000142
  H     -0.749996    3.308262   -0.000162
  H      0.700000   -0.800000    0.000000
  Na    -0.750000    1.032286    2.300000

----------------------------
CARTESIAN COORDINATES (A.U.)
----------------------------
  NO LB      ZA    FRAG     MASS         X           Y           Z
   0 C     6.0000    0    12.011    0.000000    0.000000    0.000000
   1 C     6.0000    0    12.011   -2.834589    0.000000    0.000000
   2 C     6.0000    0    12.011   -3.710525    2.695855    0.000000
   3 C     6.0000    0    12.011   -1.417291    4.361983   -0.000472
   4 C     6.0000    0    12.011    0.875937    2.695849   -0.001236
   5 H     1.0000    0     1.008    2.673174    3.279801   -0.002370
   6 H     1.0000    0     1.008   -3.945342   -1.528821   -0.000000
   7 H     1.0000    0     1.008   -5.507760    3.279814    0.000268
   8 H     1.0000    0     1.008   -1.417287    6.251709   -0.000306
   9 H     1.0000    0     1.008    1.322808   -1.511781    0.000000
  10 Na   11.0000    0    22.990   -1.417295    1.950738    4.346370

--------------------------------
INTERNAL COORDINATES (ANGSTROEM)
--------------------------------
 C      0   0   0     0.000000000000     0.00000000     0.00000000
 C      1   0   0     1.500000000000     0.00000000     0.00000000
 C      2   1   0     1.500000062617   107.99997948     0.00000000
 C      3   2   1     1.500000724852   107.99995925     0.00000000
 C      1   2   3     1.499997661037   108.00004945   359.97373342
 H      5   1   2     0.999999714722   125.99988656   180.03246000
 H      2   1   3     0.999999856257   125.99998812   180.00000085
 H      3   2   1     0.999999829812   126.00004300   180.01005666
 H      4   3   2     1.000000003874   126.00005180   180.01006753
 H      1   2   3     1.063014581273   131.18592517   180.00000000
 Na     1   2   3     2.630230861692    73.43241976    65.82850322

---------------------------
INTERNAL COORDINATES (A.U.)
---------------------------
 C      0   0   0     0.000000000000     0.00000000     0.00000000
 C      1   0   0     2.834589200882     0.00000000     0.00000000
 C      2   1   0     2.834589319210   107.99997948     0.00000000
 C      3   2   1     2.834590570655   107.99995925     0.00000000
 C      1   2   3     2.834584780882   108.00004945   359.97373342
 H      5   1   2     1.889725594825   125.99988656   180.03246000
 H      2   1   3     1.889725862286   125.99998812   180.00000085
 H      3   2   1     1.889725812313   126.00004300   180.01005666
 H      4   3   2     1.889726141242   126.00005180   180.01006753
 H      1   2   3     2.008806434972   131.18592517   180.00000000
 Na     1   2   3     4.970415997585    73.43241976    65.82850322

---------------------
BASIS SET INFORMATION
---------------------
There are 3 groups of distinct atoms

 Group   1 Type C   : 8s5p1d contracted to 4s3p1d pattern {5111/311/1}
 Group   2 Type H   : 4s1p contracted to 2s1p pattern {31/1}
 Group   3 Type Na  : 11s7p1d contracted to 5s3p1d pattern {53111/511/1}

Atom   0C    basis set group =>   1
Atom   1C    basis set group =>   1
Atom   2C    basis set group =>   1
Atom   3C    basis set group =>   1
Atom   4C    basis set group =>   1
Atom   5H    basis set group =>   2
Atom   6H    basis set group =>   2
Atom   7H    basis set group =>   2
Atom   8H    basis set group =>   2
Atom   9H    basis set group =>   2
Atom  10Na   basis set group =>   3

-------------------------
BASIS SET IN INPUT FORMAT
-------------------------

 # Basis set for element : H 
 NewGTO H 
 S 3 
   1      13.0107010000      0.0334854848
   2       1.9622572000      0.2347218709
   3       0.4445379600      0.8137702853
 S 1 
   1       0.1219496200      1.0000000000
 P 1 
   1       0.8000000000      1.0000000000
  end;

 # Basis set for element : C 
 NewGTO C 
 S 5 
   1    1238.4016938000      0.0055173650
   2     186.2900499200      0.0410888285
   3      42.2511763460      0.1822538213
   4      11.6765579320      0.4682845944
   5       3.5930506482      0.4457581734
 S 1 
   1       0.4024514736      1.0000000000
 S 1 
   1       0.1309018267      1.0000000000
 P 3 
   1       9.4680970621      0.0568883320
   2       2.0103545142      0.3129405934
   3       0.5477100471      0.7606501651
 P 1 
   1       0.1526861379      1.0000000000
 D 1 
   1       0.8000000000      1.0000000000
 S 1 
   1       0.0436339422      1.0000000000
 P 1 
   1       0.0508953793      1.0000000000
  end;

 # Basis set for element : Na
 NewGTO Na
 S 5 
   1    4098.2003908000     -0.0058297344
   2     616.4937403100     -0.0434692744
   3     139.9664400100     -0.1935227137
   4      39.0734410510     -0.4848664581
   5      11.9298472050     -0.4171101287
 S 3 
   1      20.6599660300      0.0857687068
   2       1.9838860978     -0.5624046937
   3       0.6483632394     -0.5184461021
 S 1 
   1       0.0524439674      1.0000000000
 S 1 
   1       0.0280481607      1.0000000000
 P 5 
   1      75.4018620170      0.0154353625
   2      17.2748189780      0.0997382932
   3       5.1842347425      0.3120959397
   4       1.6601211973      0.4929567481
   5       0.5123252896      0.3242039832
 P 1 
   1       0.0520000000      1.0000000000
 D 1 
   1       0.1310000000      1.0000000000
 S 1 
   1       0.0093493869      1.0000000000
 P 1 
   1       0.0173333333      1.0000000000
  end;

---------------------------------
AUXILIARY/J BASIS SET INFORMATION
---------------------------------
There are 3 groups of distinct atoms

 Group   1 Type C   : 12s5p4d2f1g contracted to 6s4p3d1f1g pattern {711111/2111/211/2/1}
 Group   2 Type H   : 5s2p1d contracted to 3s1p1d pattern {311/2/1}
 Group   3 Type Na  : 14s5p5d2f1g contracted to 8s4p4d1f1g pattern {71111111/2111/2111/2/1}

Atom   0C    basis set group =>   1
Atom   1C    basis set group =>   1
Atom   2C    basis set group =>   1
Atom   3C    basis set group =>   1
Atom   4C    basis set group =>   1
Atom   5H    basis set group =>   2
Atom   6H    basis set group =>   2
Atom   7H    basis set group =>   2
Atom   8H    basis set group =>   2
Atom   9H    basis set group =>   2
Atom  10Na   basis set group =>   3

-------------------------------------
AUXILIARY/J BASIS SET IN INPUT FORMAT
-------------------------------------

 # Auxiliary/J basis set for element : H 
 NewAuxJGTO H 
 S 3 
   1      15.6752927000      0.1007184237
   2       3.6063578000      0.3404257499
   3       1.2080016000      0.6491996172
 S 1 
   1       0.4726794000      1.0000000000
 S 1 
   1       0.2018100000      1.0000000000
 P 2 
   1       2.0281365000      0.5596620919
   2       0.5358730000      0.5596620919
 D 1 
   1       2.2165124000      1.0000000000
  end;

 # Auxiliary/J basis set for element : C 
 NewAuxJGTO C 
 S 7 
   1    1861.0916331000      0.0134602335
   2     642.9939764000      0.0299160374
   3     235.1105725000      0.1008649584
   4      90.7028894000      0.2370970548
   5      36.7794552000      0.3924037254
   6      15.6046273000      0.3195862154
   7       6.8907294000      0.0530104441
 S 1 
   1       3.1478850000     -1.0000000000
 S 1 
   1       1.4777287000      1.0000000000
 S 1 
   1       0.7076466000      1.0000000000
 S 1 
   1       0.3430122000      1.0000000000
 S 1 
   1       0.1669453000      1.0000000000
 P 2 
   1      13.5472892000     -0.6769313712
   2       5.4669419000     -0.3779500978
 P 1 
   1       2.1751721000      1.0000000000
 P 1 
   1       0.8582194000      1.0000000000
 P 1 
   1       0.3376720000      1.0000000000
 D 2 
   1       5.9287253000     -0.3533329857
   2       1.9809209000     -0.7456525731
 D 1 
   1       0.8055417000     -1.0000000000
 D 1 
   1       0.3531244000     -1.0000000000
 F 2 
   1       1.6755626000      0.6311076882
   2       0.5997536000      0.4968166032
 G 1 
   1       1.0024600000     -1.0000000000
  end;

 # Auxiliary/J basis set for element : Na
 NewAuxJGTO Na
 S 7 
   1    3754.9468758000      0.0266103878
   2    1406.4560878000      0.0461652944
   3     543.4611528000      0.1540699226
   4     216.2389118000      0.3205288758
   5      88.4180110000      0.4351106202
   6      37.0700801000      0.1884246527
   7      15.8976971000     -0.0478317760
 S 1 
   1       6.9557845000      1.0000000000
 S 1 
   1       3.0964156000      1.0000000000
 S 1 
   1       1.3983233000      1.0000000000
 S 1 
   1       0.6386578000      1.0000000000
 S 1 
   1       0.2940844000     -1.0000000000
 S 1 
   1       0.1360866000      1.0000000000
 S 1 
   1       0.0630775000      1.0000000000
 P 2 
   1      19.2914768000      0.3849754110
   2       5.8156595000     -1.2083970342
 P 1 
   1       1.7285804000      1.0000000000
 P 1 
   1       0.5094901000      1.0000000000
 P 1 
   1       0.1497524000     -1.0000000000
 D 2 
   1      14.0911593000      0.7472789599
   2       3.9826616000      0.3816952701
 D 1 
   1       1.3285602000     -1.0000000000
 D 1 
   1       0.4969388000     -1.0000000000
 D 1 
   1       0.1937075000      1.0000000000
 F 2 
   1       0.1873532000      1.3664920494
   2       0.0980271000     -0.5296690210
 G 1 
   1       0.0701600000      1.0000000000
  end;

------------------------------------------------------------------------------
                             ORCA STARTUP CALCULATIONS
                           -- RI-GTO INTEGRALS CHOSEN --
------------------------------------------------------------------------------
------------------------------------------------------------------------------
                   ___                                                        
                  /   \      - P O W E R E D   B Y -                         
                 /     \                                                     
                 |  |  |   _    _      __       _____    __    __             
                 |  |  |  | |  | |    /  \     |  _  \  |  |  /  |          
                  \  \/   | |  | |   /    \    | | | |  |  | /  /          
                 / \  \   | |__| |  /  /\  \   | |_| |  |  |/  /          
                |  |  |   |  __  | /  /__\  \  |    /   |      \           
                |  |  |   | |  | | |   __   |  |    \   |  |\   \          
                \     /   | |  | | |  |  |  |  | |\  \  |  | \   \       
                 \___/    |_|  |_| |__|  |__|  |_| \__\ |__|  \__/        
                                                                              
                      - O R C A' S   B I G   F R I E N D -                    
                                      &                                       
                       - I N T E G R A L  F E E D E R -                       
                                                                              
 v1 FN, 2020, v2 2021, v3 2022-2024                                           
------------------------------------------------------------------------------


----------------------
SHARK INTEGRAL PACKAGE
----------------------

Number of atoms                             ...     11
Number of basis functions                   ...    134
Number of shells                            ...     64
Maximum angular momentum                    ...      2
Integral batch strategy                     ... SHARK/LIBINT Hybrid
RI-J (if used) integral strategy            ... SPLIT-RIJ (Revised 2003 algorithm where possible)
Printlevel                                  ...      1
Contraction scheme used                     ... SEGMENTED contraction
Prescreening option                         ... SCHWARTZ
   Thresh                                   ... 1.000e-10
   Tcut                                     ... 1.000e-11
   Tpresel                                  ... 1.000e-11 
Coulomb Range Separation                    ... NOT USED
Exchange Range Separation                   ... Long Range
   Mu parameter                             ... 3.000e-01
   Scaling (regular/separated)              ... 1.670e-01 8.330e-01
Robust (split-)RI terms used:
  metric    (central integrals)             ... YES
  density   (r.h.s.  integrals)             ... YES
  potential (l.h.s.  integrals)             ... YES
Multipole approximations                    ... NOT USED
Finite Nucleus Model                        ... NOT USED
CABS basis                                  ... NOT available
Auxiliary Coulomb fitting basis             ... AVAILABLE
   # of basis functions in Aux-J            ...    356
   # of shells in Aux-J                     ...    118
   Maximum angular momentum in Aux-J        ...      4
Auxiliary J/K fitting basis                 ... NOT available
Auxiliary Correlation fitting basis         ... NOT available
Auxiliary 'external' fitting basis          ... NOT available

Checking pre-screening integrals            ... done (  0.0 sec) Dimension = 64
   => SHARK Basis and OBASIS are compatible. Storing Pre-screening
Shell pair information
Shell pair cut-off parameter TPreSel        ...   1.0e-11
Total number of shell pairs                 ...      2080
Shell pairs after pre-screening             ...      2055
Total number of primitive shell pairs       ...      6658
Primitive shell pairs kept                  ...      5352
          la=0 lb=0:    620 shell pairs
          la=1 lb=0:    790 shell pairs
          la=1 lb=1:    276 shell pairs
          la=2 lb=0:    210 shell pairs
          la=2 lb=1:    138 shell pairs
          la=2 lb=2:     21 shell pairs

Checking whether 4 symmetric matrices of dimension 134 fit in memory
:Max Core in MB      =   4096.00
 MB in use           =      5.89
 MB left             =   4090.11
 MB needed           =      0.28
 Data fit in memory  = YES
Calculating RI/J V-Matrix + Cholesky decomp.... done (  0.0 sec)
Calculating Nuclear repulsion               ... done (  0.0 sec) ENN=    218.832744934836 Eh

Diagonalization of the overlap matrix:
Smallest eigenvalue                        ... 2.704e-05
Time for diagonalization                   ...    0.002 sec
Threshold for overlap eigenvalues          ... 1.000e-07
Number of eigenvalues below threshold      ... 0
Time for construction of square roots      ...    0.000 sec
Total time needed                          ...    0.003 sec

-------------------
DFT GRID GENERATION
-------------------

General Integration Accuracy     IntAcc      ... 4.388
Radial Grid Type                 RadialGrid  ... OptM3 with GC (2021)
Angular Grid (max. ang.)         AngularGrid ... 4 (Lebedev-302)
Angular grid pruning method      GridPruning ... 4 (adaptive)
Weight generation scheme         WeightScheme... mBecke (2022)
Basis function cutoff            BFCut       ... 1.0000e-10
Integration weight cutoff        WCut        ... 1.0000e-14
Partially contracted basis set               ... off
Rotationally invariant grid construction     ... off
Angular grids for H and He will be reduced by one unit
Diffuse basis detected: some atoms will have their outermost
                        angular grid increased by 1.

Total number of grid points                  ...    54574
Total number of batches                      ...      859
Average number of points per batch           ...       63
Average number of grid points per atom       ...     4961

--------------------
COSX GRID GENERATION
--------------------

GRIDX 1
-------
General Integration Accuracy     IntAcc      ... 3.816
Radial Grid Type                 RadialGrid  ... OptM3 with GC (2021)
Angular Grid (max. ang.)         AngularGrid ... 1 (Lebedev-50)
Angular grid pruning method      GridPruning ... 4 (adaptive)
Weight generation scheme         WeightScheme... mBecke (2022)
Basis function cutoff            BFCut       ... 1.0000e-10
Integration weight cutoff        WCut        ... 1.0000e-14
Partially contracted basis set               ... on
Rotationally invariant grid construction     ... off
Angular grids for H and He will be reduced by one unit
Diffuse basis detected: some atoms will have their outermost
                        angular grid increased by 1.

Total number of grid points                  ...     7943
Total number of batches                      ...       68
Average number of points per batch           ...      116
Average number of grid points per atom       ...      722
UseSFitting                                  ... on

GRIDX 2
-------
General Integration Accuracy     IntAcc      ... 4.020
Radial Grid Type                 RadialGrid  ... OptM3 with GC (2021)
Angular Grid (max. ang.)         AngularGrid ... 2 (Lebedev-110)
Angular grid pruning method      GridPruning ... 4 (adaptive)
Weight generation scheme         WeightScheme... mBecke (2022)
Basis function cutoff            BFCut       ... 1.0000e-10
Integration weight cutoff        WCut        ... 1.0000e-14
Partially contracted basis set               ... on
Rotationally invariant grid construction     ... off
Angular grids for H and He will be reduced by one unit
Diffuse basis detected: some atoms will have their outermost
                        angular grid increased by 1.

Total number of grid points                  ...    16339
Total number of batches                      ...      134
Average number of points per batch           ...      121
Average number of grid points per atom       ...     1485
UseSFitting                                  ... on

GRIDX 3
-------
General Integration Accuracy     IntAcc      ... 4.338
Radial Grid Type                 RadialGrid  ... OptM3 with GC (2021)
Angular Grid (max. ang.)         AngularGrid ... 3 (Lebedev-194)
Angular grid pruning method      GridPruning ... 4 (adaptive)
Weight generation scheme         WeightScheme... mBecke (2022)
Basis function cutoff            BFCut       ... 1.0000e-10
Integration weight cutoff        WCut        ... 1.0000e-14
Partially contracted basis set               ... on
Rotationally invariant grid construction     ... off
Angular grids for H and He will be reduced by one unit
Diffuse basis detected: some atoms will have their outermost
                        angular grid increased by 1.

Total number of grid points                  ...    35939
Total number of batches                      ...      287
Average number of points per batch           ...      125
Average number of grid points per atom       ...     3267
UseSFitting                                  ... on
Grids setup in   0.7 sec
Initializing property integral containers    ... done (  0.0 sec)

SHARK setup successfully completed in   0.8 seconds

Maximum memory used throughout the entire STARTUP-calculation: 23.5 MB
-------------------------------------------------------------------------------
                                 ORCA GUESS
                   Start orbitals & Density for SCF / CASSCF
-------------------------------------------------------------------------------

------------
SCF SETTINGS
------------
Hamiltonian:
 Density Functional     Method          .... DFT(GTOs)
 Exchange Functional    Exchange        .... WB97X-V
 Correlation Functional Correlation     .... WB97X-V
 Gradients option       PostSCFGGA      .... off
 Hybrid DFT is turned on
   Fraction HF Exchange ScalHFX         ....  0.167000
   Scaling of DF-GGA-X  ScalDFX         ....  0.000000
   Scaling of DF-GGA-C  ScalDFC         ....  1.000000
   Scaling of DF-LDA-C  ScalLDAC        ....  1.000000
   Perturbative correction              ....  0.000000
 Long-range corrected/Screened/Range-Separated Hybrid DFT is turned on
   Amount of maximum screened exact exchange              ....  0.833000
   Range separation parameter mu (erf(mu*r12)/r12)        ....  0.300000
 RI-approximation to the Coulomb term is turned on
   Number of AuxJ basis functions       .... 356
   RIJ-COSX (HFX calculated with COS-X)).... on


General Settings:
 Integral files         IntName         .... test2
 Hartree-Fock type      HFTyp           .... RHF
 Total Charge           Charge          ....    0
 Multiplicity           Mult            ....    1
 Number of Electrons    NEL             ....   46
 Basis Dimension        Dim             ....  134
 Nuclear Repulsion      ENuc            ....    218.8327449348 Eh

Convergence Acceleration:
 AO-DIIS                CNVDIIS         .... on
   Start iteration      DIISMaxIt       ....    12
   Startup error        DIISStart       ....  0.200000
   # of expansion vecs  DIISMaxEq       ....     5
   Bias factor          DIISBfac        ....   1.050
   Max. coefficient     DIISMaxC        ....  10.000
 MO-DIIS                CNVKDIIS        .... off
 Trust-Rad. Augm. Hess. CNVTRAH         .... auto
   Auto Start mean grad. ratio tolernc. ....  1.125000
   Auto Start start iteration           ....    50
   Auto Start num. interpolation iter.  ....    10
   Max. Number of Micro iterations      ....    24
   Max. Number of Macro iterations      .... Maxiter - #DIIS iter
   Number of Davidson start vectors     ....     2
   Converg. threshold    (grad. norm)   ....   5.000e-05
   Grad. Scal. Fac. for Micro threshold ....   0.100
   Minimum threshold for Micro iter.    ....   1.000e-02
   NR start threshold (gradient norm)   ....   1.000e-04
   Initial trust radius                 ....   0.400
   Minimum AH scaling param. (alpha)    ....   1.000
   Maximum AH scaling param. (alpha)    .... 1000.000
   Quad. conv. algorithm                .... NR
   White noise on init. David. guess    .... on
   Maximum white noise                  ....   0.010
   Pseudo random numbers                .... off
   Inactive MOs                         .... canonical
   Orbital update algorithm             .... Taylor
   Preconditioner                       .... Diag
   Full preconditioner red. dimension   ....   250
 SOSCF                 CNVSOSCF           .... on
   Start iteration     SOSCFMaxIt         ....   150
   Startup grad/error  SOSCFStart         ....  0.003300
   Hessian update      SOSCFHessUp        .... L-BFGS
   Autom. constraints  SOSCFAutoConstrain .... off
 Level Shifting         CNVShift        .... on
   Level shift para.    LevelShift      ....    0.2500
   Turn off err/grad.   ShiftErr        ....    0.0010
 Zerner damping         CNVZerner       .... off
 Static damping         CNVDamp         .... on
   Fraction old density DampFac         ....    0.7000
   Max. Damping (<1)    DampMax         ....    0.9800
   Min. Damping (>=0)   DampMin         ....    0.0000
   Turn off err/grad.   DampErr         ....    0.1000

SCF Procedure:
 Maximum # iterations   MaxIter         ....   125
 SCF integral mode      SCFMode         .... Direct
   Integral package                     .... SHARK and LIBINT hybrid scheme
 Reset frequency        DirectResetFreq ....    20
 Integral Threshold     Thresh          ....  1.000e-10 Eh
 Primitive CutOff       TCut            ....  1.000e-11 Eh

Convergence Tolerance:
 Convergence Check Mode ConvCheckMode   .... Total+1el-Energy
 Convergence forced     ConvForced      .... 1
 Energy Change          TolE            ....  1.000e-06 Eh
 1-El. energy change                    ....  1.000e-03 Eh
 Orbital Gradient       TolG            ....  5.000e-05
 Orbital Rotation angle TolX            ....  5.000e-05
 DIIS Error             TolErr          ....  1.000e-06

------------------------------
INITIAL GUESS: MODEL POTENTIAL
------------------------------
Loading Hartree-Fock densities                     ... done
Calculating cut-offs                               ... done
Initializing the effective Hamiltonian             ... done
Setting up the integral package (SHARK)            ... done
Starting the Coulomb interaction                   ... done (   0.0 sec)
Making the grid                                    ... done (   0.1 sec)
Mapping shells                                     ... done
Starting the XC term evaluation                    ... done (   0.1 sec)
  promolecular density results
     # of electrons  =     45.996050600
     EX              =    -28.166025985
     EC              =     -1.927784717
     EX+EC           =    -30.093810702
Transforming the Hamiltonian                       ... done (   0.0 sec)
Diagonalizing the Hamiltonian                      ... done (   0.0 sec)
Back transforming the eigenvectors                 ... done (   0.0 sec)
Now organizing SCF variables                       ... done
                      ------------------
                      INITIAL GUESS DONE (   0.2 sec)
                      ------------------
----------------------
INITIAL GUESS ORBITALS
----------------------
                      0         1         2         3         4         5   
                 -37.05282  -9.57791  -9.57783  -9.57774  -9.57772  -9.56941
                   2.00000   2.00000   2.00000   2.00000   2.00000   2.00000
                  --------  --------  --------  --------  --------  --------
  0C   1s         0.000041 -0.000929  0.008108  0.001115  0.003439 -0.984228
  0C   2s        -0.000927 -0.000067  0.000599  0.000961  0.001168 -0.069671
  0C   3s         0.002692  0.001863 -0.014186 -0.003545 -0.007084  0.075484
  0C   1pz       -0.000096  0.000021 -0.000166  0.000003 -0.000039 -0.000548
  0C   1px        0.000010 -0.000801 -0.000460  0.000810 -0.001561 -0.001111
  0C   1py       -0.000021 -0.000796  0.001065  0.001172 -0.000265  0.000875
  0C   2pz        0.001506 -0.000113  0.000874 -0.000026  0.000195  0.002704
  0C   2px        0.000347  0.002057  0.002307 -0.000337  0.003932 -0.007367
  0C   2py        0.000043  0.001836 -0.002799 -0.002533 -0.001404  0.009442
  0C   1dz2       0.000140  0.000263 -0.002097 -0.000371 -0.000937  0.002803
  0C   1dxz      -0.000080  0.000002 -0.000021 -0.000050  0.000044 -0.000018
  0C   1dyz       0.000116  0.000000  0.000000 -0.000038  0.000036  0.000031
  0C   1dx2y2    -0.000007  0.001388 -0.000235 -0.001739  0.002347  0.000139
  0C   1dxy      -0.000067 -0.000506  0.000206  0.001322 -0.000051  0.002531
  0C   4s         0.002958  0.005932 -0.058045  0.004812 -0.016892  0.029494
  0C   3pz        0.002290  0.000391 -0.002637 -0.002161 -0.002771 -0.000471
  0C   3px        0.000203  0.001180  0.012673 -0.008350  0.007137  0.005725
  0C   3py        0.000567  0.003836 -0.019818 -0.000130  0.000729 -0.000515
  1C   1s         0.000043 -0.233781 -0.487248  0.219035 -0.792810 -0.007198
  1C   2s        -0.000948 -0.017135 -0.035378  0.016915 -0.056947  0.000204
  1C   3s         0.003222  0.025369  0.045470 -0.018623  0.057048 -0.010670
  1C   1pz       -0.000090 -0.000047 -0.000187  0.000154 -0.000498 -0.000116
  1C   1px       -0.000016  0.000897  0.001085 -0.000483  0.000792  0.001859
  1C   1py       -0.000023 -0.000520  0.000225  0.000054  0.002584 -0.000187
  1C   2pz        0.001504  0.000218  0.000922 -0.000824  0.002501  0.000586
  1C   2px        0.000143  0.000443  0.003776 -0.002053  0.005250 -0.004414
  1C   2py        0.000009  0.005066  0.005950 -0.004291  0.004810 -0.001090
  1C   1dz2       0.000138  0.001770  0.002483 -0.000678  0.001533 -0.001635
  1C   1dxz       0.000079 -0.000003 -0.000038  0.000011  0.000046 -0.000038
  1C   1dyz       0.000108  0.000001  0.000035 -0.000009 -0.000002  0.000041
  1C   1dx2y2    -0.000022  0.001525  0.001626 -0.000543 -0.000522  0.002530
  1C   1dxy       0.000057 -0.000118 -0.000974 -0.000377 -0.002878  0.000374
  1C   4s         0.007117  0.029428  0.036486  0.005354 -0.004117 -0.039363
  1C   3pz        0.002288  0.001379  0.000961 -0.001981 -0.002032 -0.002965
  1C   3px        0.001053  0.002586  0.000856  0.006770 -0.004445 -0.012318
  1C   3py        0.001114  0.008313  0.008401  0.007321 -0.012810 -0.008751
  2C   1s         0.000042  0.580344  0.509751 -0.252382 -0.555247  0.001424
  2C   2s        -0.000914  0.042333  0.037483 -0.017503 -0.039569  0.000798
  2C   3s         0.002653 -0.056430 -0.042550  0.015760  0.033112  0.000972
  2C   1pz       -0.000091  0.000194  0.000282 -0.000162 -0.000420  0.000051
  2C   1px       -0.000024 -0.000485 -0.001387  0.001499  0.001850  0.000096
  2C   1py        0.000012  0.000904 -0.000843  0.000984 -0.001683  0.000005
  2C   2pz        0.001505 -0.000952 -0.001440  0.000790  0.002117 -0.000297
  2C   2px       -0.000235 -0.008979 -0.005990 -0.000039  0.003229 -0.001186
  2C   2py        0.000033  0.001372  0.004651 -0.002154  0.000723 -0.000370
  2C   1dz2       0.000144 -0.003389 -0.001767  0.000211  0.000111  0.000300
  2C   1dxz       0.000128 -0.000009 -0.000002 -0.000009  0.000036  0.000009
  2C   1dyz      -0.000042 -0.000011  0.000024 -0.000067  0.000029  0.000025
  2C   1dx2y2     0.000054  0.001845 -0.000211  0.000274 -0.002522 -0.000480
  2C   1dxy      -0.000038 -0.000078 -0.002060  0.002554 -0.000135  0.000278
  2C   4s         0.003197 -0.047265 -0.007658 -0.000998 -0.027768  0.014549
  2C   3pz        0.002298 -0.002019 -0.001120 -0.002145 -0.002940 -0.001029
  2C   3px        0.000504 -0.010527  0.007907 -0.003921 -0.016034  0.008114
  2C   3py       -0.000227  0.000768  0.002278 -0.005444  0.010093 -0.003746
  3C   1s         0.000042 -0.651759  0.247085 -0.679049 -0.147280  0.001365
  3C   2s        -0.000926 -0.047664  0.018289 -0.048653 -0.009797  0.000800
  3C   3s         0.002910  0.062704 -0.020503  0.043761  0.007477  0.001406
  3C   1pz       -0.000091 -0.000232  0.000144 -0.000488 -0.000094  0.000048
  3C   1px       -0.000003  0.000326  0.001896  0.000603 -0.001013 -0.000056
  3C   1py        0.000029 -0.000834  0.000489 -0.002540 -0.000847 -0.000083
  3C   2pz        0.001504  0.001142 -0.000741  0.002458  0.000441 -0.000285
  3C   2px       -0.000061 -0.000730 -0.003773 -0.000911  0.001045  0.001006
  3C   2py       -0.000027 -0.010143  0.003534 -0.004676  0.000644  0.000707
  3C   1dz2       0.000141  0.003697 -0.000824  0.000551 -0.000045  0.000302
  3C   1dxz      -0.000000 -0.000003 -0.000051 -0.000027  0.000058 -0.000028
  3C   1dyz      -0.000134 -0.000005  0.000005 -0.000026 -0.000010 -0.000000
  3C   1dx2y2    -0.000064  0.001627 -0.000397  0.002237  0.001059  0.000528
  3C   1dxy      -0.000000 -0.000466 -0.002823 -0.000937  0.001645 -0.000035
  3C   4s         0.005511  0.048556 -0.001108 -0.024184 -0.001397  0.023954
  3C   3pz        0.002291  0.002402 -0.000743 -0.002732 -0.002180 -0.001086
  3C   3px       -0.000159 -0.001181 -0.007232 -0.002306  0.005212 -0.002268
  3C   3py       -0.001181 -0.009245 -0.004866  0.019394 -0.000159 -0.011199
  4C   1s         0.000042  0.388619 -0.640119 -0.629947  0.104840 -0.006842
  4C   2s        -0.000915  0.028321 -0.046491 -0.045045  0.008603  0.000203
  4C   3s         0.002623 -0.038344  0.053433  0.041971 -0.008227 -0.010542
  4C   1pz       -0.000092  0.000117 -0.000320 -0.000420  0.000108 -0.000123
  4C   1px        0.000027  0.000082 -0.001262 -0.002472 -0.000042 -0.000358
  4C   1py        0.000005  0.001206 -0.000750  0.000319  0.000254 -0.001753
  4C   2pz        0.001505 -0.000576  0.001616  0.002123 -0.000592  0.000622
  4C   2px        0.000052  0.006543 -0.007663 -0.003680  0.002694  0.003020
  4C   2py        0.000147 -0.000601 -0.002498 -0.002620  0.000351  0.003439
  4C   1dz2       0.000145 -0.002395  0.002385  0.000824 -0.000133 -0.001571
  4C   1dxz      -0.000127  0.000004 -0.000022 -0.000005 -0.000001 -0.000028
  4C   1dyz      -0.000041 -0.000013  0.000035 -0.000054 -0.000003  0.000047
  4C   1dx2y2     0.000054  0.001786 -0.001778 -0.000745 -0.000187 -0.001781
  4C   1dxy       0.000044 -0.000670 -0.000509 -0.002618 -0.000580  0.001585
  4C   4s         0.004905 -0.034716  0.022138 -0.016128  0.018349 -0.052491
  4C   3pz        0.002285 -0.001449  0.000522 -0.002350 -0.001721 -0.003017
  4C   3px       -0.001038  0.009014  0.000694  0.015577 -0.011565  0.013541
  4C   3py       -0.000210 -0.000761  0.002527 -0.000567 -0.004895  0.014320
  5H   1s        -0.000047 -0.004066  0.006457  0.006044 -0.001085 -0.000214
  5H   2s        -0.001905  0.004986 -0.008158 -0.008335  0.002605 -0.001201
  5H   1pz       -0.000112  0.000087 -0.000141 -0.000064  0.000159  0.000070
  5H   1px        0.000074  0.002381 -0.003459 -0.002992  0.000279  0.000497
  5H   1py        0.000016  0.000965 -0.001146 -0.000854  0.000127 -0.000017
  6H   1s        -0.000057  0.002516  0.005006 -0.002283  0.007711 -0.000239
  6H   2s        -0.001796 -0.002877 -0.005929  0.003521 -0.010130 -0.000178
  6H   1pz       -0.000111 -0.000062 -0.000094  0.000185 -0.000107  0.000073
  6H   1px       -0.000048  0.001117  0.001836 -0.000645  0.002305 -0.000081
  6H   1py       -0.000054  0.001234  0.002438 -0.000776  0.003368 -0.000537
  7H   1s        -0.000062 -0.006046 -0.005155  0.002349  0.005221 -0.000032
  7H   2s        -0.002062  0.007486  0.007042 -0.002785 -0.007341  0.000751
  7H   1pz       -0.000112  0.000139  0.000175  0.000046 -0.000047  0.000096
  7H   1px       -0.000073 -0.003532 -0.002686  0.001295  0.002365  0.000245
  7H   1py        0.000026  0.001258  0.000679 -0.000242 -0.000908 -0.000041
  8H   1s        -0.000044  0.006786 -0.002486  0.006471  0.001325 -0.000050
  8H   2s        -0.001866 -0.008543  0.003614 -0.008916 -0.001322  0.001129
  8H   1pz       -0.000112 -0.000173  0.000102 -0.000086  0.000080  0.000097
  8H   1px        0.000004  0.000051  0.000277  0.000072 -0.000098 -0.000055
  8H   1py        0.000075 -0.004144  0.001300 -0.003212 -0.000775 -0.000242
  9H   1s        -0.000043 -0.000051 -0.000166 -0.000094 -0.000258  0.008002
  9H   2s        -0.002051 -0.000156 -0.000991  0.001361  0.000006 -0.009191
  9H   1pz       -0.000110 -0.000002  0.000017  0.000119  0.000122 -0.000177
  9H   1px        0.000025 -0.000120  0.000296 -0.000044 -0.000048 -0.003542
  9H   1py       -0.000101 -0.000054 -0.000608  0.000101 -0.000325  0.004120
 10Na  1s        -0.995136 -0.000002  0.000010  0.000036  0.000038  0.000026
 10Na  2s        -0.020451  0.000031 -0.000143 -0.000516 -0.000537 -0.000377
 10Na  3s        -0.026615 -0.000518  0.002223  0.008248  0.008482  0.006161
 10Na  4s        -0.000654 -0.000375  0.001535  0.006030  0.006099  0.004712
 10Na  1pz       -0.000037 -0.000030  0.000133  0.000493  0.000510  0.000362
 10Na  1px        0.000000 -0.000015 -0.000256 -0.000156  0.000352 -0.000186
 10Na  1py       -0.000000 -0.000053  0.000191 -0.000361  0.000113  0.000253
 10Na  2pz        0.017575  0.000102 -0.000376 -0.001551 -0.001532 -0.001266
 10Na  2px        0.000007 -0.000065 -0.001126 -0.000713  0.001580 -0.000869
 10Na  2py       -0.000007 -0.000239  0.000827 -0.001594  0.000480  0.001221
 10Na  1dz2      -0.004032  0.000130 -0.000566 -0.002086 -0.002153 -0.001534
 10Na  1dxz      -0.000000  0.000140  0.002402  0.001453 -0.003286  0.001758
 10Na  1dyz      -0.000003  0.000488 -0.001789  0.003382 -0.001060 -0.002385
 10Na  1dx2y2    -0.000001  0.002534 -0.000344 -0.000169  0.000045  0.000493
 10Na  1dxy       0.000001 -0.000563 -0.001933 -0.000025 -0.000625  0.001557
 10Na  5s        -0.000739  0.000036 -0.000170 -0.000582 -0.000617 -0.000369
 10Na  3pz       -0.001798  0.000110 -0.000455 -0.001794 -0.001817 -0.001430
 10Na  3px        0.000001  0.000025  0.000429  0.000271 -0.000609  0.000395
 10Na  3py        0.000009  0.000092 -0.000312  0.000600 -0.000183 -0.000468
                      6         7         8         9        10        11   
                  -1.72572  -0.71573  -0.70907  -0.70907  -0.66226  -0.53671
                   2.00000   2.00000   2.00000   2.00000   2.00000   2.00000
                  --------  --------  --------  --------  --------  --------
  0C   1s         0.000256  0.033137 -0.001263 -0.004134 -0.117059  0.034046
  0C   2s        -0.002586 -0.049394 -0.002050 -0.007622  0.217182 -0.065292
  0C   3s         0.011646 -0.015260  0.014323  0.046808  0.069623 -0.018746
  0C   1pz       -0.000201 -0.003117  0.000041  0.000135  0.003586 -0.001255
  0C   1px       -0.000203  0.012005  0.002080  0.001055 -0.042989 -0.096549
  0C   1py        0.000238 -0.017387  0.000511 -0.002200  0.063181 -0.068712
  0C   2pz        0.007690 -0.015858  0.005096  0.017467  0.001210 -0.001442
  0C   2px        0.002779  0.009967 -0.030215 -0.017923 -0.011531 -0.038500
  0C   2py       -0.001162 -0.012074 -0.006713  0.035483  0.013923 -0.028747
  0C   1dz2       0.000368  0.001510 -0.000165 -0.000535 -0.009485  0.001546
  0C   1dxz      -0.000204  0.000806 -0.000487 -0.000263 -0.000440 -0.000417
  0C   1dyz       0.000294 -0.001177 -0.000117  0.000664  0.000596 -0.000500
  0C   1dx2y2    -0.000118 -0.000108  0.000887  0.000036 -0.000530  0.009984
  0C   1dxy      -0.000521 -0.000480  0.000008  0.001104 -0.002036 -0.004362
  0C   4s         0.020381  0.002653 -0.003280 -0.008503 -0.028446  0.048225
  0C   3pz        0.017410  0.008405 -0.002128 -0.007530 -0.003487  0.000735
  0C   3px       -0.000287  0.004368  0.022238 -0.022797  0.014084 -0.019137
  0C   3py        0.006136 -0.004721  0.024176  0.011978 -0.016129  0.005489
  1C   1s         0.000261  0.034004  0.003802 -0.002506 -0.121165 -0.152669
  1C   2s        -0.002635 -0.050240  0.006507 -0.004418  0.223159  0.290261
  1C   3s         0.014605 -0.014834 -0.041471  0.025463  0.075809  0.083768
  1C   1pz       -0.000188 -0.003266 -0.000202  0.000147  0.003707  0.005805
  1C   1px        0.000151 -0.011808  0.002138  0.000446  0.041027 -0.053657
  1C   1py        0.000187 -0.016900  0.001031 -0.002089  0.059783  0.027512
  1C   2pz        0.007677 -0.015960 -0.015116  0.010279  0.001312  0.006351
  1C   2px       -0.000182 -0.009470 -0.033754 -0.006754  0.015519 -0.003078
  1C   2py       -0.001114 -0.014082 -0.018419  0.032570  0.025259  0.037008
  1C   1dz2       0.000343  0.001389  0.000424 -0.000249 -0.009448 -0.006470
  1C   1dxz       0.000201 -0.000788 -0.000518 -0.000127  0.000443  0.000161
  1C   1dyz       0.000277 -0.001076 -0.000241  0.000515  0.000609  0.000738
  1C   1dx2y2    -0.000169 -0.000170 -0.000776 -0.000468 -0.000819 -0.003963
  1C   1dxy       0.000504  0.000602  0.000810 -0.000845  0.002027 -0.005061
  1C   4s         0.048945  0.019071  0.015370 -0.028614  0.014153 -0.046766
  1C   3pz        0.017417  0.008545  0.006540 -0.004584 -0.003338 -0.002765
  1C   3px        0.009004 -0.000897  0.005307  0.026349 -0.002622 -0.012620
  1C   3py        0.009793 -0.002175 -0.025085 -0.010281 -0.006741 -0.004777
  2C   1s         0.000256  0.034380  0.003624  0.002816 -0.123299 -0.129035
  2C   2s        -0.002460 -0.050738  0.006127  0.004693  0.227055  0.245210
  2C   3s         0.011492 -0.015564 -0.037517 -0.029168  0.070288  0.075276
  2C   1pz       -0.000189 -0.003284 -0.000198 -0.000149  0.003798  0.004927
  2C   1px        0.000249 -0.019697  0.002269  0.000947  0.069506 -0.032852
  2C   1py       -0.000061  0.006329  0.000562 -0.002003 -0.022013 -0.075742
  2C   2pz        0.007680 -0.016076 -0.014383 -0.011156  0.001368  0.005400
  2C   2px       -0.002738 -0.016696 -0.035848 -0.016145  0.025121  0.014902
  2C   2py        0.000721  0.005109 -0.006989  0.029494 -0.006470 -0.041014
  2C   1dz2       0.000369  0.001442  0.000386  0.000303 -0.009613 -0.005467
  2C   1dxz       0.000325 -0.001283 -0.000547 -0.000233  0.000750  0.000410
  2C   1dyz      -0.000106  0.000412 -0.000141  0.000481 -0.000230 -0.000605
  2C   1dx2y2     0.000447  0.000553  0.000473  0.000993  0.001616 -0.006743
  2C   1dxy      -0.000319 -0.000420 -0.000994  0.000100 -0.001039 -0.004215
  2C   4s         0.023374  0.006548  0.021626  0.022689 -0.006913  0.001820
  2C   3pz        0.017479  0.008532  0.006239  0.004789 -0.003262 -0.002479
  2C   3px        0.006420 -0.005259 -0.007405 -0.017647 -0.011866 -0.001385
  2C   3py       -0.002641  0.001825  0.024457 -0.022689  0.003215 -0.006839
  3C   1s         0.000256  0.034400 -0.001565  0.004304 -0.123515  0.072956
  3C   2s        -0.002518 -0.050791 -0.002640  0.007283  0.227446 -0.138608
  3C   3s         0.012825 -0.015129  0.016725 -0.045676  0.070328 -0.039720
  3C   1pz       -0.000190 -0.003272  0.000082 -0.000225  0.003776 -0.002725
  3C   1px       -0.000018  0.000025  0.001928  0.000698 -0.000253 -0.110317
  3C   1py       -0.000239  0.020703  0.000846 -0.002363 -0.072998 -0.004522
  3C   2pz        0.007683 -0.016033  0.006222 -0.017074  0.001332 -0.002999
  3C   2px       -0.000296 -0.000149 -0.026861 -0.009534 -0.000486 -0.045252
  3C   2py        0.001505  0.016942 -0.013874  0.038772 -0.025466  0.014272
  3C   1dz2       0.000358  0.001440 -0.000171  0.000468 -0.009624  0.003084
  3C   1dxz      -0.000000  0.000000 -0.000464 -0.000167 -0.000006 -0.000586
  3C   1dyz      -0.000343  0.001328 -0.000205  0.000560 -0.000741  0.000309
  3C   1dx2y2    -0.000545 -0.000694  0.000413 -0.001148 -0.001906 -0.001705
  3C   1dxy       0.000003 -0.000002  0.000792  0.000287  0.000050  0.009845
  3C   4s         0.037164  0.011199 -0.010399  0.019833 -0.008294  0.013093
  3C   3pz        0.017428  0.008554 -0.002710  0.007333 -0.003235  0.001153
  3C   3px       -0.001193 -0.000197  0.032135  0.012238 -0.001525 -0.007041
  3C   3py       -0.010617  0.004269 -0.005885  0.018964  0.012860 -0.002370
  4C   1s         0.000256  0.034221 -0.004594 -0.000120 -0.122381  0.174189
  4C   2s        -0.002479 -0.050587 -0.007737 -0.000376  0.225334 -0.330796
  4C   3s         0.011508 -0.016653  0.047875  0.002894  0.078756 -0.103788
  4C   1pz       -0.000193 -0.003280  0.000251  0.000006  0.003800 -0.006633
  4C   1px       -0.000226  0.019712  0.002345  0.000701 -0.069475 -0.005986
  4C   1py       -0.000094  0.006199  0.000852 -0.001848 -0.021415 -0.016628
  4C   2pz        0.007688 -0.015999  0.018202  0.000662  0.001464 -0.007338
  4C   2px        0.001714  0.016310 -0.038071 -0.010092 -0.028284  0.038455
  4C   2py        0.001199  0.005716 -0.013702  0.026305 -0.009137  0.007120
  4C   1dz2       0.000370  0.001419 -0.000497 -0.000012 -0.009570  0.007393
  4C   1dxz      -0.000325  0.001277 -0.000570 -0.000170 -0.000758  0.000783
  4C   1dyz      -0.000105  0.000406 -0.000199  0.000466 -0.000228  0.000159
  4C   1dx2y2     0.000448  0.000520 -0.001011  0.000468  0.001735  0.002469
  4C   1dxy       0.000340  0.000441 -0.000707 -0.000732  0.001053  0.003413
  4C   4s         0.034961  0.015140 -0.023026 -0.006360  0.011238 -0.017690
  4C   3pz        0.017384  0.008535 -0.007884 -0.000298 -0.003420  0.003060
  4C   3px       -0.010038  0.002952 -0.018847  0.011586  0.007224  0.006534
  4C   3py       -0.002280  0.000584 -0.004900 -0.032102  0.003533  0.000602
  5H   1s        -0.000712 -0.015413  0.007152  0.000212  0.052076 -0.152307
  5H   2s        -0.011268 -0.005351  0.007953 -0.000132  0.011111 -0.038080
  5H   1pz       -0.000343  0.001260 -0.001629 -0.000060  0.000296 -0.000036
  5H   1px        0.000434  0.003257 -0.001129  0.000236 -0.008140  0.018556
  5H   1py        0.000113  0.001040 -0.000321 -0.000842 -0.002633  0.005830
  6H   1s        -0.000760 -0.015339 -0.005982  0.004047  0.051440  0.133219
  6H   2s        -0.010583 -0.005322 -0.007249  0.003909  0.011694  0.028303
  6H   1pz       -0.000341  0.001259  0.001353 -0.000920  0.000295  0.000034
  6H   1px       -0.000274 -0.002011 -0.000156  0.001003  0.005009  0.009451
  6H   1py       -0.000339 -0.002730 -0.001086  0.000064  0.006781  0.014164
  7H   1s        -0.000775 -0.015527 -0.005669 -0.004374  0.052547  0.112651
  7H   2s        -0.012211 -0.005997 -0.006229 -0.004326  0.009667  0.026700
  7H   1pz       -0.000342  0.001268  0.001289  0.001000  0.000296  0.000018
  7H   1px       -0.000432 -0.003274 -0.000709 -0.000894  0.008230  0.013405
  7H   1py        0.000146  0.001072  0.000812 -0.000467 -0.002721 -0.005303
  8H   1s        -0.000704 -0.015511  0.002437 -0.006777  0.052624 -0.063776
  8H   2s        -0.011168 -0.005590  0.002570 -0.007827  0.009305 -0.014559
  8H   1pz       -0.000341  0.001268 -0.000557  0.001531  0.000292 -0.000011
  8H   1px        0.000015  0.000006  0.000837  0.000295  0.000015 -0.001248
  8H   1py        0.000448  0.003448 -0.000393  0.001096 -0.008692  0.008154
  9H   1s        -0.000612 -0.012325  0.002274  0.005782  0.040554 -0.030185
  9H   2s        -0.012308 -0.004874  0.002476  0.008400  0.001565  0.000403
  9H   1pz       -0.000341  0.001228 -0.000473 -0.001504  0.000265 -0.000002
  9H   1px        0.000223  0.001826  0.000507 -0.000909 -0.004011  0.001716
  9H   1py       -0.000471 -0.002062  0.000685  0.000556  0.005144 -0.003691
 10Na  1s        -0.266767  0.002355 -0.000001 -0.000001 -0.005181 -0.000011
 10Na  2s         1.004889 -0.009920  0.000006  0.000003  0.025219  0.000068
 10Na  3s        -0.222644  0.048996 -0.000057 -0.000123  0.047311  0.000061
 10Na  4s         0.022459 -0.102000 -0.000013  0.000647 -0.023968  0.000613
 10Na  1pz        0.000957  0.934451 -0.000390 -0.003190  0.311261  0.000082
 10Na  1px        0.000003  0.001284  0.928380  0.335566  0.000870  0.044569
 10Na  1py       -0.000002 -0.002498  0.335557 -0.928415 -0.001913  0.020462
 10Na  2pz        0.116874  0.077206 -0.000039 -0.000398  0.009272 -0.000322
 10Na  2px        0.000060  0.000067  0.052049  0.018738  0.000206 -0.003798
 10Na  2py       -0.000054 -0.000183  0.018865 -0.052045 -0.000312 -0.001379
 10Na  1dz2      -0.023721  0.000418  0.000015  0.000005  0.002001  0.000007
 10Na  1dxz       0.000001  0.000026  0.012022  0.004362  0.000074  0.004170
 10Na  1dyz      -0.000011 -0.000026  0.004358 -0.012003 -0.000046  0.001954
 10Na  1dx2y2    -0.000008 -0.000013  0.000012  0.000013 -0.000010  0.000029
 10Na  1dxy       0.000005 -0.000018  0.000024  0.000005 -0.000029  0.000045
 10Na  5s        -0.008160  0.014747 -0.000019 -0.000011 -0.002754  0.000069
 10Na  3pz       -0.013978 -0.010443  0.000037 -0.000064  0.002237 -0.000165
 10Na  3px        0.000007 -0.000013 -0.018656 -0.006736 -0.000061  0.000843
 10Na  3py        0.000066  0.000078 -0.006742  0.018593  0.000123  0.000171
                     12        13        14        15        16        17   
                  -0.53163  -0.41072  -0.40366  -0.38491  -0.27111  -0.26603
                   2.00000   2.00000   2.00000   2.00000   2.00000   2.00000
                  --------  --------  --------  --------  --------  --------
  0C   1s         0.165717 -0.026398  0.124208 -0.074176 -0.006143  0.032280
  0C   2s        -0.319909  0.051769 -0.245871  0.149157  0.015361 -0.084249
  0C   3s        -0.088089  0.061742 -0.276660  0.149228  0.014187 -0.111535
  0C   1pz       -0.006506  0.000726 -0.004833  0.000747  0.001191 -0.007626
  0C   1px        0.020342  0.137081 -0.008134  0.131379 -0.142774  0.213576
  0C   1py        0.000585  0.064470  0.044782 -0.176966 -0.047810 -0.208807
  0C   2pz       -0.007045  0.002028 -0.011032  0.001686  0.001133 -0.006515
  0C   2px        0.021734  0.012373  0.080022  0.033105 -0.014895  0.094165
  0C   2py       -0.006125  0.032750 -0.082675 -0.047860  0.002537 -0.090823
  0C   1dz2       0.007315 -0.000712  0.003094 -0.000648 -0.000150  0.000730
  0C   1dxz       0.000605  0.000648  0.000409  0.000595 -0.000989  0.001245
  0C   1dyz      -0.000653  0.000460 -0.000367 -0.000845 -0.000371 -0.001391
  0C   1dx2y2    -0.003893 -0.005082  0.001194  0.003800  0.013495  0.000318
  0C   1dxy      -0.003300  0.000350  0.009425  0.006316 -0.003497 -0.004547
  0C   4s         0.029093 -0.051402  0.316010 -0.031215 -0.058248  0.088421
  0C   3pz        0.004349  0.000236  0.008053  0.019284 -0.002180  0.013293
  0C   3px       -0.006538  0.023879 -0.038021  0.044404 -0.013225  0.015145
  0C   3py        0.008313 -0.000195  0.068463 -0.017438 -0.027075 -0.000267
  1C   1s         0.092691  0.099777 -0.087782  0.003702 -0.039275  0.004971
  1C   2s        -0.176398 -0.192744  0.168652 -0.009448  0.104840 -0.017570
  1C   3s        -0.064488 -0.223730  0.198728 -0.007720  0.110880  0.023002
  1C   1pz       -0.003555 -0.002945  0.001727 -0.002081  0.008829 -0.001545
  1C   1px       -0.081268 -0.020895 -0.190254 -0.057567  0.174106 -0.175426
  1C   1py        0.063817  0.146134 -0.064295 -0.170083  0.283112 -0.000756
  1C   2pz       -0.004011 -0.007481  0.005258 -0.005000  0.008023 -0.002199
  1C   2px       -0.049386 -0.067884  0.002964 -0.048253  0.063127 -0.019018
  1C   2py       -0.002264 -0.052777  0.037130 -0.079558  0.089458  0.006931
  1C   1dz2       0.003778  0.002359 -0.001869  0.000888 -0.000339  0.000239
  1C   1dxz      -0.000713 -0.000433 -0.000795 -0.000447  0.001042 -0.001120
  1C   1dyz      -0.000016  0.000372 -0.000043 -0.001128  0.001762  0.000146
  1C   1dx2y2    -0.009295 -0.001251 -0.004581  0.004892  0.000618 -0.014720
  1C   1dxy      -0.001880 -0.006904  0.000660 -0.007628 -0.009758  0.001497
  1C   4s         0.004527  0.179182 -0.144618  0.161297 -0.080233  0.032378
  1C   3pz        0.002413 -0.000465  0.008300  0.019972 -0.014116  0.004110
  1C   3px       -0.010225  0.017508 -0.041125  0.025347 -0.001836 -0.011577
  1C   3py        0.005229  0.042152 -0.029690  0.001354  0.003381  0.011951
  2C   1s        -0.118408 -0.134475  0.001638 -0.018703 -0.018828 -0.031883
  2C   2s         0.225645  0.259600 -0.002927  0.032970  0.050432  0.089137
  2C   3s         0.076825  0.299941 -0.005562  0.027767  0.048749  0.052234
  2C   1pz        0.004495  0.004024 -0.000645 -0.001841  0.004226  0.008058
  2C   1px        0.017902 -0.142289 -0.093761 -0.190708  0.111578  0.338774
  2C   1py        0.094374  0.028531 -0.118715  0.117146 -0.171335  0.016201
  2C   2pz        0.005022  0.010004 -0.001695 -0.003088  0.003828  0.007444
  2C   2px        0.033042  0.104925 -0.048740 -0.077421  0.043875  0.086778
  2C   2py        0.025647 -0.037433 -0.022554  0.042718 -0.026024  0.006278
  2C   1dz2      -0.004901 -0.003103  0.000282  0.000346 -0.000121 -0.000161
  2C   1dxz       0.000651 -0.000117 -0.000611 -0.001199  0.000655  0.002088
  2C   1dyz       0.000357 -0.000056 -0.000621  0.000680 -0.001195  0.000138
  2C   1dx2y2     0.002504  0.006466 -0.005507 -0.005185 -0.011060 -0.005445
  2C   1dxy       0.008414 -0.005375 -0.001219  0.005188 -0.007437  0.013570
  2C   4s        -0.014566 -0.234803  0.021929  0.045879 -0.071693 -0.068299
  2C   3pz       -0.001672  0.000758  0.006979  0.021502 -0.006649 -0.012261
  2C   3px       -0.001649 -0.055758 -0.010768 -0.012170 -0.014792  0.008082
  2C   3py        0.011273  0.014985 -0.014179 -0.001214 -0.021182  0.005285
  3C   1s        -0.161448  0.117394  0.049171 -0.036479  0.027690 -0.030272
  3C   2s         0.307445 -0.226881 -0.095032  0.067089 -0.073997  0.077600
  3C   3s         0.102403 -0.261380 -0.112490  0.084502 -0.076124  0.095777
  3C   1pz        0.006091 -0.003448 -0.002061 -0.001393 -0.006193  0.006235
  3C   1px       -0.054680 -0.075456  0.127310 -0.050452 -0.106266 -0.191920
  3C   1py        0.016055 -0.124802 -0.002104  0.242450  0.233726 -0.204191
  3C   2pz        0.006783 -0.008687 -0.005282 -0.001603 -0.005657  0.005579
  3C   2px       -0.021028 -0.015824  0.028960 -0.014021 -0.010399 -0.049075
  3C   2py       -0.034367  0.097404  0.073791  0.065272  0.074914 -0.077733
  3C   1dz2      -0.006674  0.002708  0.001284 -0.000089  0.000177 -0.000145
  3C   1dxz      -0.000296 -0.000401  0.000671 -0.000268 -0.000746 -0.001198
  3C   1dyz      -0.000654 -0.000075  0.000327  0.001350  0.001416 -0.001289
  3C   1dx2y2     0.003885  0.007383  0.007191  0.005439 -0.006675  0.004852
  3C   1dxy       0.004712  0.002408 -0.003739  0.001130  0.010252  0.011907
  3C   4s        -0.005011  0.204551  0.181809  0.055147  0.080285 -0.108765
  3C   3pz       -0.002389 -0.000517  0.006504  0.021383  0.010176 -0.008522
  3C   3px       -0.002629 -0.010260  0.016238 -0.014758 -0.022082 -0.029022
  3C   3py        0.001641 -0.050498 -0.035843  0.009375 -0.005647  0.012245
  4C   1s         0.027764 -0.055684 -0.121104  0.019708  0.035904  0.021429
  4C   2s        -0.052565  0.107315  0.233810 -0.040099 -0.096002 -0.055354
  4C   3s        -0.035760  0.128310  0.250792 -0.043190 -0.097165 -0.039273
  4C   1pz       -0.001059  0.001612  0.002657 -0.002743 -0.008338 -0.004167
  4C   1px       -0.037408  0.100303  0.167861  0.157584  0.308382  0.136960
  4C   1py        0.117584 -0.113259  0.135465  0.001489  0.031905  0.071536
  4C   2pz       -0.001439  0.004195  0.007506 -0.005920 -0.007545 -0.004136
  4C   2px        0.000892 -0.033935 -0.058173  0.108225  0.092283  0.054855
  4C   2py        0.055659 -0.045877  0.005339  0.019383  0.024728 -0.020790
  4C   1dz2       0.001208 -0.001285 -0.002326  0.001034  0.000297  0.000110
  4C   1dxz      -0.000083  0.000278  0.000397  0.001213  0.001966  0.000797
  4C   1dyz       0.000702 -0.000718  0.000586  0.000100  0.000140  0.000640
  4C   1dx2y2     0.006375  0.000241  0.005516 -0.009718  0.003310  0.009092
  4C   1dxy      -0.008894  0.005615  0.000348 -0.004360  0.010192 -0.005368
  4C   4s        -0.001936 -0.096099 -0.250977  0.104676  0.130734  0.069469
  4C   3pz        0.001287  0.000343  0.008332  0.019478  0.013076  0.006747
  4C   3px       -0.000434  0.027498  0.065919 -0.006856 -0.009347 -0.018286
  4C   3py        0.006982 -0.006312  0.029768  0.010803 -0.016993  0.030582
  5H   1s        -0.023706  0.100516  0.266136  0.075467  0.219924  0.107152
  5H   2s        -0.011175  0.034263  0.055257 -0.057362  0.074385  0.035769
  5H   1pz        0.000002 -0.000032 -0.000037  0.000085  0.000081  0.000054
  5H   1px        0.002335 -0.006985 -0.020814 -0.004572 -0.009290 -0.005172
  5H   1py        0.002237 -0.005352 -0.005087 -0.002610 -0.005362  0.000268
  6H   1s        -0.081556 -0.178720  0.203692  0.108768 -0.240167  0.088178
  6H   2s        -0.026285 -0.061708  0.034225 -0.039024 -0.076141  0.038976
  6H   1pz       -0.000018  0.000060 -0.000029  0.000108 -0.000101  0.000113
  6H   1px       -0.007102 -0.010486  0.007279  0.005772 -0.007393 -0.001294
  6H   1py       -0.007412 -0.010679  0.014903  0.005427 -0.008733  0.005935
  7H   1s         0.106665  0.241803  0.030580  0.166099 -0.115373 -0.242420
  7H   2s         0.021489  0.084005 -0.023519 -0.026112 -0.038794 -0.086401
  7H   1pz        0.000012 -0.000091  0.000029  0.000057 -0.000040 -0.000116
  7H   1px        0.013105  0.018906  0.001268  0.011909 -0.006553 -0.009570
  7H   1py       -0.002942 -0.006551 -0.003528 -0.002781 -0.002439  0.006752
  8H   1s         0.145457 -0.210464 -0.058317  0.203989  0.169510 -0.140748
  8H   2s         0.032393 -0.073471 -0.048916 -0.010062  0.055831 -0.045881
  8H   1pz        0.000023  0.000065  0.000057  0.000069  0.000076 -0.000040
  8H   1px       -0.000676 -0.001673  0.002778 -0.001064 -0.003553 -0.005637
  8H   1py       -0.018261  0.017405  0.004864 -0.015025 -0.008059  0.006519
  9H   1s        -0.118385  0.051402 -0.150746  0.211851 -0.036718  0.211390
  9H   2s        -0.020421  0.013778 -0.066293 -0.013349 -0.016089  0.051607
  9H   1pz       -0.000012 -0.000013  0.000108  0.000046 -0.000029  0.000103
  9H   1px        0.009755 -0.000535  0.008955 -0.010751 -0.001621 -0.006782
  9H   1py       -0.011489  0.005144 -0.009400  0.012173 -0.004436  0.008425
 10Na  1s         0.000160  0.000016  0.000727  0.001717 -0.000002  0.000006
 10Na  2s        -0.000806 -0.000097 -0.003878 -0.009260  0.000010 -0.000051
 10Na  3s        -0.003302 -0.000175 -0.027374 -0.071070 -0.000060 -0.001826
 10Na  4s        -0.003709 -0.000605 -0.037696 -0.100462 -0.000452 -0.003330
 10Na  1pz       -0.003030 -0.000144 -0.010827 -0.026040  0.000027 -0.000504
 10Na  1px        0.020233  0.000045  0.000996 -0.001208  0.009912  0.008968
 10Na  1py       -0.043998 -0.000069 -0.001717  0.002156  0.009533 -0.008880
 10Na  2pz        0.002584  0.000413  0.024538  0.064638  0.000198  0.001997
 10Na  2px       -0.002164 -0.000027 -0.000898  0.001351 -0.014077 -0.012691
 10Na  2py        0.004389 -0.000063  0.001499 -0.001704 -0.014023  0.012822
 10Na  1dz2      -0.000305 -0.000061 -0.002080 -0.005190  0.000023 -0.000101
 10Na  1dxz       0.001902  0.000095  0.000092 -0.000164  0.005143  0.004927
 10Na  1dyz      -0.004393  0.000023 -0.000495  0.000647  0.004940 -0.004710
 10Na  1dx2y2    -0.000010 -0.000379 -0.000200  0.000077 -0.000005  0.000426
 10Na  1dxy       0.000107  0.000253 -0.000155 -0.000030 -0.000054 -0.001141
 10Na  5s        -0.000127 -0.000038 -0.001177 -0.003007 -0.000020  0.000112
 10Na  3pz        0.000901  0.000117  0.008726  0.023061  0.000117  0.000561
 10Na  3px        0.000431 -0.000039  0.000287  0.000228 -0.002397 -0.002220
 10Na  3py       -0.000887  0.000070 -0.000192  0.000291 -0.002106  0.002648
                     18        19        20        21        22        23   
                  -0.25006  -0.24298  -0.22713  -0.10524  -0.10336   0.00399
                   2.00000   2.00000   2.00000   2.00000   2.00000   0.00000
                  --------  --------  --------  --------  --------  --------
  0C   1s         0.002736 -0.006083  0.004777 -0.000602 -0.006665 -0.011746
  0C   2s         0.000544 -0.000298 -0.014423  0.002942  0.029777  0.032100
  0C   3s        -0.096905  0.112016  0.001329 -0.004587 -0.038884  0.055451
  0C   1pz        0.000578 -0.001871  0.232142 -0.038558 -0.364480  0.024621
  0C   1px       -0.282582 -0.052704  0.003551  0.010422 -0.007568  0.010354
  0C   1py       -0.089811 -0.316494 -0.003849  0.009802  0.007552 -0.013776
  0C   2pz        0.001207 -0.002315  0.130975 -0.029352 -0.272391  0.012956
  0C   2px       -0.088813 -0.076325  0.002768  0.030299  0.014233  0.007517
  0C   2py       -0.084644 -0.086227 -0.002185  0.017684 -0.024805 -0.010243
  0C   1dz2       0.000147  0.000582  0.002246 -0.000283 -0.002696 -0.002866
  0C   1dxz      -0.001444 -0.000391 -0.007471 -0.016581  0.004544 -0.001058
  0C   1dyz      -0.000566 -0.001636  0.011132 -0.012665 -0.003871  0.001520
  0C   1dx2y2     0.009750  0.003846  0.000118 -0.001363  0.000209  0.000560
  0C   1dxy       0.007012 -0.016005  0.000562  0.000498 -0.000150  0.001068
  0C   4s         0.176978 -0.128635 -0.018793 -0.011908 -0.029522 -0.016692
  0C   3pz       -0.002722  0.007822 -0.006577 -0.009494 -0.080501 -0.045131
  0C   3px       -0.040084  0.037506  0.003311 -0.013930  0.029898  0.028762
  0C   3py        0.041887 -0.045862 -0.003604 -0.018866 -0.030742 -0.040050
  1C   1s         0.000072  0.008925  0.004777  0.006107 -0.002765 -0.011433
  1C   2s        -0.001066 -0.007300 -0.014741 -0.027643  0.012498  0.031497
  1C   3s         0.010481 -0.148695  0.003971  0.037966 -0.018044  0.053887
  1C   1pz       -0.000253  0.001669  0.238583  0.339032 -0.157174  0.025529
  1C   1px        0.287083  0.079238 -0.003691 -0.001238  0.013110 -0.009015
  1C   1py       -0.224435  0.115765 -0.005718 -0.011405 -0.004118 -0.012579
  1C   2pz       -0.000198  0.001647  0.134368  0.252308 -0.117358  0.013611
  1C   2px        0.137673 -0.017165 -0.001999  0.027626  0.018544 -0.005994
  1C   2py       -0.100559 -0.032228 -0.003888  0.013906 -0.029133 -0.008048
  1C   1dz2      -0.000131  0.000464  0.002299  0.002508 -0.001166 -0.002921
  1C   1dxz       0.001527  0.000275  0.007320 -0.004592 -0.016602  0.001039
  1C   1dyz      -0.001214  0.000543  0.010463  0.008376  0.009687  0.001432
  1C   1dx2y2     0.008178  0.002264  0.000173  0.000549  0.001188  0.000292
  1C   1dxy       0.003583 -0.016583 -0.000444  0.000094  0.000436 -0.001133
  1C   4s        -0.055807  0.198141 -0.037012  0.030818 -0.000072 -0.062468
  1C   3pz        0.000336 -0.003459 -0.006644  0.074260 -0.033090 -0.044113
  1C   3px       -0.012257  0.034828 -0.006461  0.015879 -0.024362 -0.035549
  1C   3py       -0.010445  0.050868 -0.008343  0.036634  0.000198 -0.045628
  2C   1s        -0.004642 -0.015161  0.004965  0.004531  0.004872 -0.011678
  2C   2s         0.003696  0.026951 -0.015232 -0.020387 -0.022212  0.032010
  2C   3s         0.081139  0.142527  0.002912  0.026737  0.030819  0.054066
  2C   1pz       -0.000580  0.002028  0.240938  0.248710  0.274662  0.024744
  2C   1px        0.018443 -0.110613 -0.006163 -0.003709 -0.010459 -0.014717
  2C   1py        0.323266 -0.136826  0.002548  0.012317 -0.006717  0.004610
  2C   2pz       -0.000966  0.000497  0.136083  0.185331  0.205158  0.012913
  2C   2px        0.061571  0.023982 -0.004091  0.026735  0.014207 -0.009778
  2C   2py        0.128886 -0.091509  0.001374  0.018684 -0.029532  0.003316
  2C   1dz2      -0.000090 -0.000062  0.002324  0.001852  0.002026 -0.002954
  2C   1dxz       0.000185 -0.000374  0.012244 -0.001995  0.007416  0.001691
  2C   1dyz       0.001745 -0.000799 -0.003903 -0.015790  0.012657 -0.000584
  2C   1dx2y2     0.011852  0.007541 -0.000435  0.000540 -0.000607 -0.000885
  2C   1dxy       0.001229 -0.009001  0.000315  0.000879 -0.000711  0.000662
  2C   4s        -0.095792 -0.159313 -0.030678  0.018737  0.018794 -0.047180
  2C   3pz        0.001799  0.001285 -0.005926  0.054052  0.060803 -0.045016
  2C   3px       -0.028324 -0.039693 -0.008392  0.021237  0.034370 -0.051761
  2C   3py        0.013019  0.011934  0.002124 -0.024858  0.005033  0.016120
  3C   1s         0.006091 -0.007243  0.004972 -0.003306  0.005703 -0.011693
  3C   2s        -0.000740  0.023871 -0.015336  0.014946 -0.025918  0.032006
  3C   3s        -0.133518 -0.028123  0.003387 -0.020108  0.035473  0.055329
  3C   1pz        0.001081  0.002721  0.241071 -0.185488  0.321254  0.024750
  3C   1px       -0.139329  0.296903 -0.000819  0.012184  0.007429  0.000614
  3C   1py       -0.156844 -0.111045  0.007145 -0.005261  0.009129  0.015286
  3C   2pz        0.001912  0.002764  0.135711 -0.138060  0.240344  0.012866
  3C   2px       -0.064311  0.149293 -0.000464  0.030082  0.017934  0.000980
  3C   2py        0.029208 -0.005992  0.003722  0.014671 -0.026162  0.009757
  3C   1dz2       0.000181  0.000121  0.002308 -0.001364  0.002374 -0.002966
  3C   1dxz      -0.000746  0.001500 -0.000047 -0.018252 -0.010694  0.000033
  3C   1dyz      -0.000660 -0.000605 -0.012841  0.002241 -0.003686 -0.001789
  3C   1dx2y2     0.015916  0.008153  0.000501 -0.000088  0.000118  0.001171
  3C   1dxy       0.003541 -0.005094 -0.000003 -0.001201 -0.000693  0.000046
  3C   4s         0.185612  0.020257 -0.023568 -0.012822  0.027670 -0.030421
  3C   3pz       -0.004631 -0.003436 -0.006235 -0.040363  0.073050 -0.044278
  3C   3px        0.002615 -0.008060 -0.000126 -0.019581 -0.012082  0.001215
  3C   3py       -0.056557 -0.014476  0.006642  0.020273 -0.037192  0.050202
  4C   1s        -0.006766  0.012855  0.004720 -0.006615 -0.001434 -0.011049
  4C   2s         0.002361 -0.026877 -0.014570  0.029709  0.006565  0.030477
  4C   3s         0.132415 -0.052305  0.002741 -0.039330 -0.010889  0.052496
  4C   1pz       -0.001471 -0.000682  0.239155 -0.363379 -0.082624  0.025510
  4C   1px        0.126049 -0.111551  0.006677 -0.011261  0.002049  0.014947
  4C   1py        0.137104  0.358789  0.000653 -0.000965 -0.013691  0.006052
  4C   2pz       -0.002316 -0.001048  0.135373 -0.270521 -0.062932  0.013717
  4C   2px       -0.040863 -0.025727  0.004409  0.025054  0.017089  0.010886
  4C   2py        0.034294  0.158714  0.000868  0.015495 -0.030048  0.003553
  4C   1dz2      -0.000107  0.000004  0.002331 -0.002696 -0.000623 -0.002968
  4C   1dxz       0.000535 -0.000555 -0.012194  0.005502 -0.005451 -0.001679
  4C   1dyz       0.000705  0.002049 -0.003773 -0.002817  0.019896 -0.000541
  4C   1dx2y2     0.014718  0.003657 -0.000427  0.000265 -0.000781 -0.000950
  4C   1dxy       0.007784 -0.011871 -0.000243 -0.000158  0.001114 -0.000762
  4C   4s        -0.214063  0.083414 -0.038949 -0.026437 -0.011703 -0.072738
  4C   3pz        0.004454  0.001150 -0.005818 -0.079512 -0.019288 -0.044304
  4C   3px        0.061983 -0.025271  0.009879  0.040057  0.001992  0.057656
  4C   3py        0.018042  0.010950  0.003649  0.007378  0.026203  0.019620
  5H   1s         0.167814 -0.016459 -0.001349 -0.001500 -0.000197  0.012344
  5H   2s         0.076052 -0.012151 -0.006216 -0.008763 -0.001969 -0.008936
  5H   1pz        0.000239 -0.000034  0.007516 -0.014970 -0.003370  0.000164
  5H   1px       -0.007424 -0.002281 -0.000081  0.000509  0.000026 -0.002511
  5H   1py       -0.000133  0.009575 -0.000071  0.000106  0.000267 -0.000773
  6H   1s         0.012199 -0.152876 -0.001038  0.001474 -0.000531  0.012302
  6H   2s         0.001920 -0.072028 -0.006071  0.008780 -0.003466 -0.008267
  6H   1pz       -0.000002 -0.000194  0.007540  0.013970 -0.006520  0.000165
  6H   1px        0.007623 -0.003736  0.000057  0.000195 -0.000304  0.001598
  6H   1py       -0.004895 -0.004972  0.000106  0.000476 -0.000045  0.002105
  7H   1s         0.087103  0.087490 -0.001493  0.000998  0.001104  0.012609
[...]
  0-1A  ->  9-1A    5.759304   46451.9   215.3    0.07669  -0.24950  -0.04779  -0.00024
  0-1A  -> 10-1A    5.765410   46501.2   215.0   -0.15751   0.04744  -0.24927  -0.00022
  0-1A  -> 11-1A    5.812702   46882.6   213.3   -0.01017   0.00338  -0.00119  -0.00089
  0-1A  -> 12-1A    5.816311   46911.7   213.2    0.03687   0.00289  -0.00074  -0.00016
  0-1A  -> 13-1A    6.477630   52245.6   191.4   -1.27171  -0.03621  -0.06218  -0.00013
  0-1A  -> 14-1A    6.482797   52287.3   191.3    0.13107  -0.06022   0.03773  -0.00241
  0-1A  -> 15-1A    6.667451   53776.6   186.0    0.03012  -0.00078  -0.00440  -0.00044
  0-1A  -> 16-1A    6.672097   53814.1   185.8    0.05862   0.00199  -0.00386  -0.00010
  0-1A  -> 17-1A    6.803277   54872.1   182.2    0.02082  -0.00448   0.00103   0.00086
  0-1A  -> 18-1A    6.889380   55566.6   180.0    0.20367   0.00356  -0.00409   0.00058
  0-1A  -> 19-1A    6.894948   55611.5   179.8    0.07502  -0.00188   0.00354  -0.00013
  0-1A  -> 20-1A    7.020388   56623.3   176.6    0.48695  -0.02317   0.01489   0.01861
  0-1A  -> 21-1A    7.040956   56789.1   176.1    1.70697  -0.08373   0.01776  -0.00844
  0-1A  -> 22-1A    7.041855   56796.4   176.1   -0.47494  -0.01596  -0.08047   0.00353
  0-1A  -> 23-1A    7.170891   57837.1   172.9    0.00546   0.00345   0.00348   0.00055
  0-1A  -> 24-1A    7.172388   57849.2   172.9   -0.06500   0.00182   0.00546   0.00198
  0-1A  -> 25-1A    7.268765   58626.6   170.6    3.42007   0.17267   0.13627   0.00079
  0-1A  -> 26-1A    7.276863   58691.9   170.4   -2.19127  -0.13301   0.17659   0.00248
  0-1A  -> 27-1A    7.292137   58815.1   170.0   -0.09974  -0.02997  -0.00673   0.02695
  0-1A  -> 28-1A    7.307934   58942.5   169.7   -0.88385   0.00220  -0.00088   0.00135
  0-1A  -> 29-1A    7.801681   62924.8   158.9   -0.41921  -0.18647  -0.01337   0.00216
  0-1A  -> 30-1A    7.807822   62974.3   158.8    0.36611  -0.00226   0.18368   0.00117
  0-1A  -> 31-1A    7.856408   63366.2   157.8   -0.00765   0.00120  -0.00496   0.00035
  0-1A  -> 32-1A    7.901339   63728.6   156.9   -0.11395   0.00091  -0.00017  -0.00049
  0-1A  -> 33-1A    8.034353   64801.4   154.3    0.68949   0.12627  -0.01104  -0.00104
  0-1A  -> 34-1A    8.037925   64830.2   154.2    1.38767  -0.26623   0.04652  -0.00321
  0-1A  -> 35-1A    8.047773   64909.7   154.1   -1.11401  -0.02547  -0.30900  -0.00069
  0-1A  -> 36-1A    8.527695   68780.5   145.4   -0.27606   0.04920   0.01959   0.00024
  0-1A  -> 37-1A    8.543858   68910.9   145.1    0.01130  -0.02238   0.00630   0.00083
  0-1A  -> 38-1A    8.563825   69071.9   144.8    0.07696   0.01286   0.00540  -0.00001
  0-1A  -> 39-1A    8.578549   69190.7   144.5   -0.20847   0.03625   0.00382  -0.00194
  0-1A  -> 40-1A    8.629315   69600.1   143.7    0.75382   0.17906   0.00362   0.00033
  0-1A  -> 41-1A    8.647239   69744.7   143.4   -1.45374  -0.02044   0.14774  -0.00093
  0-1A  -> 42-1A    8.704039   70202.8   142.4    0.86208  -0.05844  -0.11101   0.00136
  0-1A  -> 43-1A    8.727450   70391.6   142.1   -0.07618   0.01469   0.01239   0.00402
  0-1A  -> 44-1A    8.737986   70476.6   141.9   -0.04140   0.00902   0.01609  -0.00388
  0-1A  -> 45-1A    8.784668   70853.1   141.1    0.04256  -0.06943   0.04330   0.00379
  0-1A  -> 46-1A    8.833978   71250.8   140.3    1.97892   0.01787   0.01369   0.00784
  0-1A  -> 47-1A    8.838950   71290.9   140.3   -1.26758   0.04082   0.02473  -0.06199
  0-1A  -> 48-1A    8.888738   71692.5   139.5   -0.09052  -0.28976  -0.16309   0.00124
  0-1A  -> 49-1A    9.163584   73909.3   135.3   -3.03670   1.09588  -0.18399   0.00243
  0-1A  -> 50-1A    9.268516   74755.6   133.8    1.45884  -0.15819  -1.06035  -0.00486

------------------------------------------------------------------------------------------
                     CD SPECTRUM VIA TRANSITION VELOCITY DIPOLE MOMENTS    
------------------------------------------------------------------------------------------
     Transition      Energy     Energy  Wavelength    R        MX        MY        MZ   
                      (eV)      (cm-1)    (nm)   (1e40*cgs)   (au)      (au)      (au)  
------------------------------------------------------------------------------------------
  0-1A  ->  1-1A    3.472182   28005.0   357.1    0.59320  -0.35560  -0.07439  -0.00071
  0-1A  ->  2-1A    3.478912   28059.3   356.4   -0.21841   0.07385  -0.35453  -0.00029
  0-1A  ->  3-1A    4.995477   40291.2   248.2   -0.00026   0.00150   0.00128  -0.00091
  0-1A  ->  4-1A    4.996509   40299.6   248.1    0.00219   0.00013  -0.00051  -0.00106
  0-1A  ->  5-1A    5.080543   40977.3   244.0   -0.21836   0.00100  -0.00053   0.00054
  0-1A  ->  6-1A    5.107763   41196.9   242.7   -0.15706   0.00066   0.00134  -0.03177
  0-1A  ->  7-1A    5.364780   43269.9   231.1   -0.03902   0.05519   0.03052   0.00010
  0-1A  ->  8-1A    5.370348   43314.8   230.9    0.05370  -0.02930   0.05125   0.00044
  0-1A  ->  9-1A    5.759304   46451.9   215.3    0.15303  -0.24950  -0.04779  -0.00024
  0-1A  -> 10-1A    5.765410   46501.2   215.0   -0.10256   0.04744  -0.24927  -0.00022
  0-1A  -> 11-1A    5.812702   46882.6   213.3   -0.01718   0.00338  -0.00119  -0.00089
  0-1A  -> 12-1A    5.816311   46911.7   213.2    0.01644   0.00289  -0.00074  -0.00016
  0-1A  -> 13-1A    6.477630   52245.6   191.4   -0.47808  -0.03621  -0.06218  -0.00013
  0-1A  -> 14-1A    6.482797   52287.3   191.3    0.07666  -0.06022   0.03773  -0.00241
  0-1A  -> 15-1A    6.667451   53776.6   186.0    0.01455  -0.00078  -0.00440  -0.00044
  0-1A  -> 16-1A    6.672097   53814.1   185.8    0.01476   0.00199  -0.00386  -0.00010
  0-1A  -> 17-1A    6.803277   54872.1   182.2    0.05889  -0.00448   0.00103   0.00086
  0-1A  -> 18-1A    6.889380   55566.6   180.0    0.06118   0.00356  -0.00409   0.00058
  0-1A  -> 19-1A    6.894948   55611.5   179.8    0.03623  -0.00188   0.00354  -0.00013
  0-1A  -> 20-1A    7.020388   56623.3   176.6    0.22135  -0.02317   0.01489   0.01861
  0-1A  -> 21-1A    7.040956   56789.1   176.1    0.75190  -0.08373   0.01776  -0.00844
  0-1A  -> 22-1A    7.041855   56796.4   176.1   -0.20909  -0.01596  -0.08047   0.00353
  0-1A  -> 23-1A    7.170891   57837.1   172.9   -0.00191   0.00345   0.00348   0.00055
  0-1A  -> 24-1A    7.172388   57849.2   172.9   -0.02473   0.00182   0.00546   0.00198
  0-1A  -> 25-1A    7.268765   58626.6   170.6    0.01258   0.17267   0.13627   0.00079
  0-1A  -> 26-1A    7.276863   58691.9   170.4   -0.74958  -0.13301   0.17659   0.00248
  0-1A  -> 27-1A    7.292137   58815.1   170.0   -0.10958  -0.02997  -0.00673   0.02695
  0-1A  -> 28-1A    7.307934   58942.5   169.7   -0.62532   0.00220  -0.00088   0.00135
  0-1A  -> 29-1A    7.801681   62924.8   158.9   -0.93352  -0.18647  -0.01337   0.00216
  0-1A  -> 30-1A    7.807822   62974.3   158.8    0.81228  -0.00226   0.18368   0.00117
  0-1A  -> 31-1A    7.856408   63366.2   157.8   -0.06516   0.00120  -0.00496   0.00035
  0-1A  -> 32-1A    7.901339   63728.6   156.9   -0.08220   0.00091  -0.00017  -0.00049
  0-1A  -> 33-1A    8.034353   64801.4   154.3    0.45773   0.12627  -0.01104  -0.00104
  0-1A  -> 34-1A    8.037925   64830.2   154.2   -0.41265  -0.26623   0.04652  -0.00321
  0-1A  -> 35-1A    8.047773   64909.7   154.1    0.61723  -0.02547  -0.30900  -0.00069
  0-1A  -> 36-1A    8.527695   68780.5   145.4   -0.01679   0.04920   0.01959   0.00024
  0-1A  -> 37-1A    8.543858   68910.9   145.1    0.00176  -0.02238   0.00630   0.00083
  0-1A  -> 38-1A    8.563825   69071.9   144.8   -0.01310   0.01286   0.00540  -0.00001
  0-1A  -> 39-1A    8.578549   69190.7   144.5   -0.07552   0.03625   0.00382  -0.00194
  0-1A  -> 40-1A    8.629315   69600.1   143.7    1.33293   0.17906   0.00362   0.00033
  0-1A  -> 41-1A    8.647239   69744.7   143.4   -1.82720  -0.02044   0.14774  -0.00093
  0-1A  -> 42-1A    8.704039   70202.8   142.4    0.91642  -0.05844  -0.11101   0.00136
  0-1A  -> 43-1A    8.727450   70391.6   142.1   -0.03347   0.01469   0.01239   0.00402
  0-1A  -> 44-1A    8.737986   70476.6   141.9   -0.02869   0.00902   0.01609  -0.00388
  0-1A  -> 45-1A    8.784668   70853.1   141.1    0.05730  -0.06943   0.04330   0.00379
  0-1A  -> 46-1A    8.833978   71250.8   140.3    1.49683   0.01787   0.01369   0.00784
  0-1A  -> 47-1A    8.838950   71290.9   140.3   -1.03081   0.04082   0.02473  -0.06199
  0-1A  -> 48-1A    8.888738   71692.5   139.5   -0.00256  -0.28976  -0.16309   0.00124
  0-1A  -> 49-1A    9.163584   73909.3   135.3   -2.08915   1.09588  -0.18399   0.00243
  0-1A  -> 50-1A    9.268516   74755.6   133.8    2.23335  -0.15819  -1.06035  -0.00486

Total run time:       44.431 sec

           *** ORCA-CIS/TD-DFT FINISHED WITHOUT ERROR ***
-----------------------
CIS/TD-DFT TOTAL ENERGY
-----------------------

    E(SCF)  =   -355.678552712 Eh
    DE(CIS) =      0.127600360 Eh (Root  1)
    ----------------------------- ---------
    E(tot)  =   -355.550952352 Eh


Maximum memory used throughout the entire CIS-calculation: 186.0 MB
=> NOW LEAVING ORCA_CIS


-------------------------------------------------------------------------------
                          DFT DISPERSION CORRECTION                            
                                                                               
                                DFTD4 V3.4.0                                   
-------------------------------------------------------------------------------
The WB97X-D3BJ functional is recognized
Active option DFTDOPT                   ...         5   

-------------------------   ----------------
Dispersion correction           -0.021526451
-------------------------   ----------------


-------------------------   --------------------
FINAL SINGLE POINT ENERGY      -355.572478802850
-------------------------   --------------------


------------------------------------------------------------------------------
                              ORCA PROPERTY CALCULATIONS
------------------------------------------------------------------------------

GBWName                                 ... test2.gbw
Number of atoms                         ...     11
Number of basis functions               ...    134
Max core memory                         ...   4096 MB

Electric properties:
Dipole moment                           ... YES
Quadrupole moment                       ...  NO
Static polarizability (Dipole/Dipole)   ...  NO
Static polarizability (Dipole/Quad.)    ...  NO
Static polarizability (Quad./Quad.)     ...  NO
Static polarizability (Velocity)        ...  NO
Static hyperpolarizability              ...  NO

Atomic electric properties:
Dipole moment                           ...  NO
Quadrupole moment                       ...  NO
Static polarizability                   ...  NO

Choice of electric origin               ... Center of mass
Position of electric origin             ...    -1.414867     1.950933     1.134133

General magnetic properties:
Magnetizability                         ...  NO

EPR properties:
g-Tensor (aka g-matrix)                 ...  NO
Zero-Field splitting spin-orbit         ...  NO
Zero-field splitting spin-spin          ...  NO
Hyperfine couplings                     ...  NO (   0 nuclei)
Quadrupole couplings                    ...  NO (   0 nuclei)
Contact density                         ...  NO (   0 nuclei)

NMR properties:
Chemical shifts                         ...  NO (   0 nuclei)
Spin-rotation constants                 ...  NO (   0 nuclei)
Spin-spin couplings                     ...  NO (   0 nuclei,    0 pairs)

Choice of magnetic origin               ... GIAO
Position of magnetic origin             ...     0.000000     0.000000     0.000000

Properties with geometric perturbations:
SCF Hessian                             ...  NO
IR spectrum                             ...  NO
VCD spectrum                            ...  NO
X-ray spectroscopy properties:
SCF XES/XAS/RIXS spectra                ...  NO

SCF SOC stabilization energy            ...  NO
Diagonal Born-Oppenheimer correction    ...  NO

-------------
DIPOLE MOMENT
-------------

Method             : SCF
Type of density    : Electron Density
Multiplicity       :   1
Irrep              :   0
Energy             :  -355.6785527121489281 Eh
Basis              : AO
                                X                 Y                 Z
Electronic contribution:     -0.097374260       0.007586667       7.343172665
Nuclear contribution   :      0.100433231       0.008067802      -4.372703240
                        -----------------------------------------
Total Dipole Moment    :      0.003058971       0.015654469       2.970469425
                        -----------------------------------------
Magnitude (a.u.)       :      2.970512249
Magnitude (Debye)      :      7.550442094



--------------------
Rotational spectrum 
--------------------
 
Rotational constants in cm-1:             0.135767             0.111117             0.110735 
Rotational constants in MHz :          4070.204736          3331.189763          3319.741232 

Dipole components along the rotational axes: 
x,y,z [a.u.] :     2.970440     0.003719     0.020326 
x,y,z [Debye]:     7.550259     0.009453     0.051665 

 

Dipole moment calculation done in   0.0 sec 

Maximum memory used throughout the entire PROP-calculation: 7.8 MB

--------------------------------
SUGGESTED CITATIONS FOR THIS RUN
--------------------------------

Below you find a list of papers that are relevant to this ORCA run
We neither can nor want to force you to cite these papers, but we appreciate if you do
You receive ORCA, which is the product of decades of hard work by many enthusiastic individuals, for free
The only thing we kindly ask in return is that you cite our papers,
We deeply appreciate it, if you show your appreciation for ORCA by not just citing the generic ORCA reference.

Please note that relegating all ORCA citations to the supporting information does *not* help us.
SI sections are not indexed - citations you put there will not count into any citation statistics
But we need these citations in order to attract the funding resources that allow us to do what we are doing

Therefore, if you are a happy ORCA user, please consider citing a few of the papers listed below in the main body of your paper

In addition to the list printed below, the program has created the file test2.bibtex that contains the list in bibtex format
You can import this file easily into all common literature databanks and citation aid programs

It goes without saying that in many instances, there are alternative algorithms to achieve similar
results as the ones you have gotten from ORCA. It is, of course, also the case that in some instances
ORCA just re-implements algorithms worked out by others. We are fully aware of that and we are also
fully appreciative of our colleagues work. Hence this citation list should not be read as indicating
that the listed papers, which are focused on our own work, are the only ones worth citing. It simply
meant to make it easier for users to cite ORCA specific papers. It is not a substitute for doing your
own literature research and citing the relevant literature in a scientifically appropriate manner.

List of essential papers. We consider these as the minimum necessary citations

  1. Neese, F.
     Software update: the ORCA program system, version 6.0
     WIRES Comput. Molec. Sci. 2025 15(1), e70019
     doi.org/10.1002/wcms.70019

List of papers to cite with high priority. The work reported in these papers was absolutely
necessary for this run to complete.
Our perspective: the developers of density functionals and basis sets usually get cited in chemistry papers
Good! But without the algorithms to do something with them, the functionals or basis sets would not do anything.
Hence, in our opinion, the algorithm design and method developments papers are equally worthy of getting cited

  1. Neese, F.; Olbrich, G.
     Efficient use of the resolution of the identity approximation in time-dependent density functional calculations with hybrid density functionals
     Chem. Phys. Lett. 2002 362 , 170-178
     doi.org/10.1016/s0009-2614(02)01053-9
  2. Neese, F.
     An improvement of the resolution of the identity approximation for the formation of the Coulomb matrix
     J. Comp. Chem. 2003 24(14), 1740-1747
     doi.org/10.1002/jcc.10318
  3. Neese, F.; Wennmohs, F.; Hansen, A.; Becker, U.
     Efficient, approximate and parallel Hartree-Fock and hybrid DFT calculations. A 'chain-of-spheres' algorithm for the Hartree-Fock exchange
     Chem. Phys. 2009 356(1-3), 98-109
     doi.org/10.1016/j.chemphys.2008.10.036
  4. Caldeweyher, E.; Bannwarth, C.; Grimme, S.
     Extension of the D3 dispersion coefficient model
     J. Chem. Phys. 2017 147 , 034112
     doi.org/10.1063/1.4993215
  5. Caldeweyher, E.; Ehlert, S.; Hansen, A.; Neugebauer, H.; Spicher, S.; Bannwarth, C.; Grimme, S.
     A generally applicable atomic-charge dependent London dispersion correction
     J. Chem. Phys. 2019 150 , 154122
     doi.org/10.1063/1.5090222
  6. Caldeweyher, E.; Mewes, J.; Ehlert, S.; Grimme, S.
     Extension and evaluation of the D4 London-dispersion model for periodic systems
     Phys. Chem. Chem. Phys. 2020 22(16), 8499-8512
     doi.org/10.1039/D0CP00502A
  7. Helmich-Paris, B.; de Souza, B.; Neese, F.; Izsák, R.
     An improved chain of spheres for exchange algorithm
     J. Chem. Phys. 2021 155(10), 104109
     doi.org/10.1063/5.0058766
  8. Neese, F.
     The SHARK Integral Generation and Digestion System
     J. Comp. Chem. 2022 44(3), 381
     doi.org/10.1002/jcc.26942

List of suggested additional citations. These are papers that are important in the 'surrounding' of 
of this run, or papers that preceded the highly important papers. If you like your results we are grateful for a citation.

  1. Izsak, R.; Neese, F.
     An overlap fitted chain of spheres exchange method
     J. Chem. Phys. 2011 135 , 144105
     doi.org/10.1063/1.3646921
  2. Izsak, R.; Hansen, A.; Neese, F.
     The resolution of identity and chain of spheres approximations for the LPNO-CCSD singles Fock term
     Molec. Phys. 2012 110 , 2413-2417
     doi.org/10.1080/00268976.2012.687466
  3. Neese, F.
     The ORCA program system
     WIRES Comput. Molec. Sci. 2012 2(1), 73-78
     doi.org/10.1002/wcms.81
  4. Izsak, R.; Neese, F.; Klopper, W.
     Robust fitting techniques in the chain of spheres approximation to the Fock exchange: The role of the complementary space
     J. Chem. Phys. 2013 139 , 
     doi.org/10.1063/1.4819264
  5. Neese, F.
     Software update: the ORCA program system, version 4.0
     WIRES Comput. Molec. Sci. 2018 8(1), 1-6
     doi.org/10.1002/wcms.1327
  6. Neese, F.; Wennmohs, F.; Becker, U.; Riplinger, C.
     The ORCA quantum chemistry program package
     J. Chem. Phys. 2020 152(22), 224108
     doi.org/10.1063/5.0004608
  7. Neese, F.
     Software update: The ORCA program system—Version 5.0
     WIRES Comput. Molec. Sci. 2022 12(1), e1606
     doi.org/10.1002/wcms.1606

List of optional additional citations

  1. Neese, F.
     Approximate second-order SCF convergence for spin unrestricted wavefunctions
     Chem. Phys. Lett. 2000 325(1-3), 93-98
     doi.org/10.1016/s0009-2614(00)00662-x

Timings for individual modules:

Sum of individual times          ...       71.302 sec (=   1.188 min)
Startup calculation              ...        0.822 sec (=   0.014 min)   1.2 %
SCF iterations                   ...       25.905 sec (=   0.432 min)  36.3 %
Property integrals               ...        0.067 sec (=   0.001 min)   0.1 %
Property calculations            ...        0.057 sec (=   0.001 min)   0.1 %
CIS module                       ...       44.451 sec (=   0.741 min)  62.3 %
                             ****ORCA TERMINATED NORMALLY****
TOTAL RUN TIME: 0 days 0 hours 1 minutes 11 seconds 460 msec
