
                                 *****************
                                 * O   R   C   A *
                                 *****************

                                            #,                                       
                                            ###                                      
                                            ####                                     
                                            #####                                    
                                            ######                                   
                                           ########,                                 
                                     ,,################,,,,,                         
                               ,,#################################,,                 
                          ,,##########################################,,             
                       ,#########################################, ''#####,          
                    ,#############################################,,   '####,        
                  ,##################################################,,,,####,       
                ,###########''''           ''''###############################       
              ,#####''   ,,,,##########,,,,          '''####'''          '####       
            ,##' ,,,,###########################,,,                        '##       
           ' ,,###''''                  '''############,,,                           
         ,,##''                                '''############,,,,        ,,,,,,###''
      ,#''                                            '''#######################'''  
     '                                                          ''''####''''         
             ,#######,   #######,   ,#######,      ##                                
            ,#'     '#,  ##    ##  ,#'     '#,    #''#        ,####,    ,#,          
            ##       ##  ##   ,#'  ##            #'  '#       #'       ,# #          
            ##       ##  #######   ##           ,######,      #####,      #          
            '#,     ,#'  ##    ##  '#,     ,#' ,#      #,     #,   #      #          
             '#######'   ##     ##  '#######'  #'      '#     '####' #    #          



                #########################################################
                #                        -***-                          #
                #          Department of theory and spectroscopy        #
                #                                                       #
                #                      Frank Neese                      #
                #                                                       #
                #     Directorship, Architecture, Infrastructure        #
                #                    SHARK, DRIVERS                     #
                #        Core code/Algorithms in most modules           #
                #                                                       #
                #        Max Planck Institute fuer Kohlenforschung      #
                #                Kaiser Wilhelm Platz 1                 #
                #                 D-45470 Muelheim/Ruhr                 #
                #                      Germany                          #
                #                                                       #
                #                  All rights reserved                  #
                #                        -***-                          #
                #########################################################


                         Program Version 6.1.1  -  RELEASE   -
                                (GIT: $487d211c$)
                          ($2025-11-21 10:33:24 +0100$)


 With contributions from (in alphabetic order):
[Max-Planck-Institut fuer Kohlenforschung]                               
  Daniel Aravena         : Magnetic Suceptibility                        
  Michael Atanasov       : Ab Initio Ligand Field Theory (pilot matlab implementation)
  Alexander A. Auer      : GIAO ZORA, VPT2 properties, NMR spectrum      
  Ute Becker             : All parallelization in ORCA, NUMFREQ, NUMCALC 
  Giovanni Bistoni       : ED, misc. LED, open-shell LED, HFLD           
  Dmytro Bykov           : pre 5.0 version of the SCF Hessian            
  Marcos Casanova-Páez   : Triplet and SCS-CIS(D). UHF-(DLPNO)-IP/EA/STEOM-CCSD. UHF-CVS-IP/STEOM-CCSD   
  Vijay G. Chilkuri      : MRCI spin determinant printing, contributions to CSF-ICE 
  Pauline Colinet        : FMM embedding                                 
  Dipayan Datta          : RHF DLPNO-CCSD density                        
  Achintya Kumar Dutta   : EOM-CC, STEOM-CC                              
  Nicolas Foglia         : Exact transition moments, OPA infrastructure, MCD improvements    
  Dmitry Ganyushin       : Spin-Orbit,Spin-Spin,Magnetic field MRCI      
  Miquel Garcia-Rates    : C-PCM and meta-GGA Hessian, CCSD/C-PCM, Gaussian charge scheme 
  Tiago L. C. Gouveia    : GS-ROHF, GS-ROCIS                             
  Yang Guo               : DLPNO-NEVPT2, F12-NEVPT2, CIM, IAO-localization        
  Andreas Hansen         : Spin unrestricted coupled pair/coupled cluster methods 
  Ingolf Harden          : AUTO-CI MPn and infrastructure                
  Benjamin Helmich-Paris : MC-RPA, TRAH-(SCF,CASSCF), AVAS, COSX integrals, SCF dyn. polar., MC-PDFT, srDFT 
  Lee Huntington         : MR-EOM, pCC                                   
  Robert Izsak           : Overlap fitted RIJCOSX, COSX-SCS-MP3, EOM     
  Riya Kayal             : Wick's Theorem for AUTO-CI, AUTO-CI UHF-CCSDT 
  Emily Kempfer          : AUTO-CI RHF CISDT and CCSDT, approximate NEVPT4
  Christian Kollmar      : KDIIS, OOCD, Brueckner-CCSD(T), CCSD density, CASPT2, CASPT2-K, improved NEVPT2 
  Axel Koslowski         : Symmetry handling                             
  Simone Kossmann        : meta-GGA functionals, TD-DFT gradient, OOMP2, (MP2 Hessian; deprecated post 5.0) 
  Lucas Lang             : DCDCAS, Hyperfine gauge corrections, ICE-SOC+SSC
  Marvin Lechner         : AUTO-CI (C++ implementation), FIC-MRCC        
  Spencer Leger          : CASSCF response                               
  Dagmar Lenk            : GEPOL surface, SMD, ORCA-2-JSON               
  Dimitrios Liakos       : Extrapolation schemes; Compound Job, Property file
  Dimitrios Manganas     : Further ROCIS development; embedding schemes. LFT, Crystal Embedding 
  Dimitrios Pantazis     : SARC Basis sets                               
  Anastasios Papadopoulos: AUTO-CI, single reference methods and gradients 
  Taras Petrenko         : pre 6.0 DFT Hessian and TD-DFT gradient,  ECA, NRVS 
  Petra Pikulova         : Analytic Raman intensities                    
  Peter Pinski           : DLPNO-MP2, DLPNO-MP2 Gradient                 
  Shashank Vittal Rao    : ES-AILFT, MagRelax                            
  Christoph Reimann      : Effective Core Potentials                     
  Marius Retegan         : Local ZFS, SOC                                
  Christoph Riplinger    : Optimizer, TS searches, QM/MM, DLPNO-CCSD(T), (RO)-DLPNO pert. Triples 
  Michael Roemelt        : Original ROCIS implementation, recursive CI coupling coefficients
  Masaaki Saitow         : Open-shell DLPNO-CCSD energy and density      
  Barbara Sandhoefer     : DKH picture change effects                    
  Yorick L. A. Schmerwitz: GMF and freeze-and-release deltaSCF, NEB S-IDPP initial path                    
  Kantharuban Sivalingam : CASSCF convergence/infrastructure, NEVPT2, NEVPT3, NEVPT4(SD), FIC-MRCI and CEPA variants
  Bernardo de Souza      : ESD, SOC TD-DFT                               
  Georgi L. Stoychev     : AutoAux, RI-MP2 NMR, DLPNO-MP2 response, X2C  
  Van Anh Tran           : RI-MP2 g-tensors                              
  Willem Van den Heuvel  : Paramagnetic NMR                              
  Zikuan Wang            : NOTCH, Electric field optimization            
  Frank Wennmohs         : Technical directorship and infrastructure     
  Hang Xu                : AUTO-CI-Response properties                   
                                                                         
[FACCTs GmbH]                                                            
  Markus Bursch, Nicolas Foglia, Miquel Garcia-Rates, Ingolf Harden, Hagen Neugebauer, Anastasios Papadopoulos, 
  Christoph Riplinger, Bernardo de Souza, Georgi L. Stoychev                                                    
                                                                 
  APM, various basis sets, CI-OPT, improved COSX, DLPNO-Multilevel,           
  DOCKER, DRACO, updates on ESD, Fragmentator, GOAT, IRC, LR-CPCM, L-BFGS, MBIS, meta-GGA TD-DFT gradient, ML-optimized integration grids, 
  MM, NACMEs, nearIR, NEB, NEB-TS, NL-DFT gradient (VV10), 2- and 3-layer-ONIOM, interface openCOSMO-RS, QMMM,   
  Crystal-QMMM, RESP, rigid body optimization, SF, symmetry and pop. for TD-DFT, various functionals, SOLVATOR                                   
                                                                         
[Other institutions]                                                     
  V. Asgeirsson          : NEB                                           
  Christoph Bannwarth    : sTDA-DFT, sTD-DFT, PBEh-3c, B97-3c, D3        
  Giovanni Bistoni       : ETS/NOCV, ADLD/ADEX, COVALED                  
  Martin Brehm           : Molecular dynamics                            
  Ronald Cardenas        : ETS/NOCV                                      
  Martina Colucci        : COVALED                                       
  Sebastian Ehlert       : rSCAN, r2SCAN, r2SCAN-3c, D4, dhf basis sets  
  Marvin Friede          : D4 for Fr, Ra, Ac-Lr                          
  Lars Goerigk           : TD-DFT with DH, B97 family of functionals     
  Stefan Grimme          : VdW corrections, initial TS optimization, DFT functionals, gCP, sTDA/sTD-DF 
  Waldemar Hujo          : DFT-NL                                        
  H. Jonsson             : NEB                                           
  Holger Kruse           : gCP                                           
  Marcel Mueller         : wB97X-3c, vDZP basis set                      
  Hagen Neugebauer       : wr2SCAN, Native XTB                           
  Gianluca Regni         : ADLD/ADEX                                     
  Tobias Risthaus        : pre 6.0 range-separated hybrid DFT and stability analysis
  Lukas Wittmann         : regularized MP2, r2SCAN double-hybrids, wr2SCAN        
                                                                         
We gratefully acknowledge several colleagues who have allowed us to      
interface, adapt or use parts of their codes:                            
  Ed Valeev, F. Pavosevic, A. Kumar             : LibInt (2-el integral package), F12 methods 
  Garnet Chan, S. Sharma, J. Yang, R. Olivares  : DMRG                   
  Ulf Ekstrom                                   : XCFun DFT Library      
  Mihaly Kallay                                 : mrcc  (arbitrary order and MRCC methods)
  Frank Weinhold                                : gennbo (NPA and NBO analysis)           
  Simon Mueller                                 : openCOSMO-RS                            
  Christopher J. Cramer and Donald G. Truhlar   : smd solvation model                     
  S Lehtola, MJT Oliveira, MAL Marques          : LibXC Library                           
  Liviu Ungur et al                             : ANISO software                          


 Your calculation uses the libint2 library for the computation of 2-el integrals
 For citations please refer to: http://libint.valeyev.net

 Your ORCA version has been built with support for libXC version: 7.0.0
 For citations please refer to: https://libxc.gitlab.io

 This ORCA versions uses:
   CBLAS   interface :  Fast vector & matrix operations
   LAPACKE interface :  Fast linear algebra routines
   SCALAPACK package :  Parallel linear algebra routines
   Shared memory     :  Shared parallel matrices
   BLAS/LAPACK       :  OpenBLAS 0.3.29  USE64BITINT DYNAMIC_ARCH NO_AFFINITY Haswell SINGLE_THREADED
        Core in use  :  Haswell
   Copyright (c) 2011-2014, The OpenBLAS Project


  ***********************************
  * Starting time: Tue Jan 20 20:50:27 2026
  * Host name:     Maks
  * Process ID:    4049
  * Working dir.:  /home/maksy/Chemia_obliczeniowa/Cwiczenia5/test1
  ***********************************

Your calculation utilizes the atom-pairwise dispersion correction
based on EEQ partial charges (D4)


Warning: RI is on but no J-basis has been assigned. Assigning Def2/J (nothing to worry about!)
================================================================================

----- Orbital basis set information -----
Your calculation utilizes the basis: def2-SVP
   F. Weigend and R. Ahlrichs, Phys. Chem. Chem. Phys. 7, 3297 (2005).

----- AuxJ basis set information -----
Your calculation utilizes the auxiliary basis: def2/J
   H-Rn: F. Weigend, Phys. Chem. Chem. Phys. 8, 1057 (2006).
   Fr-Lr: K. Eichkorn, F. Weigend, O. Treutler, R. Ahlrichs; Theor. Chem. Acc. 97, 119 (1997).

================================================================================
                                        WARNINGS
                       Please study these warnings very carefully!
================================================================================

WARNING: Old DensityContainer found on disk!
         Will remove this file - 
         If you want to keep old densities, please start your calculation with a different basename. 


WARNING: CIS/ROCIS methods need fully converged wavefunctions
  ===> : Setting SCFConvForced true
         You can overwrite this default with %scf ConvForced false 


================================================================================
                                       INPUT FILE
================================================================================
NAME = test1
|  1> ! wB97X-D4 def2-SVP LargePrint
|  2> 
|  3> %tddft
|  4>   nroots 50
|  5> end
|  6> 
|  7> * xyz 0 1
|  8>  C         0.000000        0.000000        0.000000
|  9>  C        -1.500000        0.000000        0.000000
| 10>  C        -1.963525        1.426585        0.000000
| 11>  C        -0.749998        2.308262       -0.000250
| 12>  C         0.463526        1.426582       -0.000654
| 13>  H         1.414583        1.735596       -0.001254
| 14>  H        -2.087785       -0.809017       -0.000000
| 15>  H        -2.914581        1.735603        0.000142
| 16>  H        -0.749996        3.308262       -0.000162
| 17>  H         0.700000       -0.800000        0.000000
| 18>  Na       -0.750000        1.032286        2.300000
| 19> *
| 20> 
| 21>                          ****END OF INPUT****
================================================================================

                       ****************************
                       * Single Point Calculation *
                       ****************************

---------------------------------
CARTESIAN COORDINATES (ANGSTROEM)
---------------------------------
  C      0.000000    0.000000    0.000000
  C     -1.500000    0.000000    0.000000
  C     -1.963525    1.426585    0.000000
  C     -0.749998    2.308262   -0.000250
  C      0.463526    1.426582   -0.000654
  H      1.414583    1.735596   -0.001254
  H     -2.087785   -0.809017   -0.000000
  H     -2.914581    1.735603    0.000142
  H     -0.749996    3.308262   -0.000162
  H      0.700000   -0.800000    0.000000
  Na    -0.750000    1.032286    2.300000

----------------------------
CARTESIAN COORDINATES (A.U.)
----------------------------
  NO LB      ZA    FRAG     MASS         X           Y           Z
   0 C     6.0000    0    12.011    0.000000    0.000000    0.000000
   1 C     6.0000    0    12.011   -2.834589    0.000000    0.000000
   2 C     6.0000    0    12.011   -3.710525    2.695855    0.000000
   3 C     6.0000    0    12.011   -1.417291    4.361983   -0.000472
   4 C     6.0000    0    12.011    0.875937    2.695849   -0.001236
   5 H     1.0000    0     1.008    2.673174    3.279801   -0.002370
   6 H     1.0000    0     1.008   -3.945342   -1.528821   -0.000000
   7 H     1.0000    0     1.008   -5.507760    3.279814    0.000268
   8 H     1.0000    0     1.008   -1.417287    6.251709   -0.000306
   9 H     1.0000    0     1.008    1.322808   -1.511781    0.000000
  10 Na   11.0000    0    22.990   -1.417295    1.950738    4.346370

--------------------------------
INTERNAL COORDINATES (ANGSTROEM)
--------------------------------
 C      0   0   0     0.000000000000     0.00000000     0.00000000
 C      1   0   0     1.500000000000     0.00000000     0.00000000
 C      2   1   0     1.500000062617   107.99997948     0.00000000
 C      3   2   1     1.500000724852   107.99995925     0.00000000
 C      1   2   3     1.499997661037   108.00004945   359.97373342
 H      5   1   2     0.999999714722   125.99988656   180.03246000
 H      2   1   3     0.999999856257   125.99998812   180.00000085
 H      3   2   1     0.999999829812   126.00004300   180.01005666
 H      4   3   2     1.000000003874   126.00005180   180.01006753
 H      1   2   3     1.063014581273   131.18592517   180.00000000
 Na     1   2   3     2.630230861692    73.43241976    65.82850322

---------------------------
INTERNAL COORDINATES (A.U.)
---------------------------
 C      0   0   0     0.000000000000     0.00000000     0.00000000
 C      1   0   0     2.834589200882     0.00000000     0.00000000
 C      2   1   0     2.834589319210   107.99997948     0.00000000
 C      3   2   1     2.834590570655   107.99995925     0.00000000
 C      1   2   3     2.834584780882   108.00004945   359.97373342
 H      5   1   2     1.889725594825   125.99988656   180.03246000
 H      2   1   3     1.889725862286   125.99998812   180.00000085
 H      3   2   1     1.889725812313   126.00004300   180.01005666
 H      4   3   2     1.889726141242   126.00005180   180.01006753
 H      1   2   3     2.008806434972   131.18592517   180.00000000
 Na     1   2   3     4.970415997585    73.43241976    65.82850322

---------------------
BASIS SET INFORMATION
---------------------
There are 3 groups of distinct atoms

 Group   1 Type C   : 7s4p1d contracted to 3s2p1d pattern {511/31/1}
 Group   2 Type H   : 4s1p contracted to 2s1p pattern {31/1}
 Group   3 Type Na  : 10s6p1d contracted to 4s2p1d pattern {5311/51/1}

Atom   0C    basis set group =>   1
Atom   1C    basis set group =>   1
Atom   2C    basis set group =>   1
Atom   3C    basis set group =>   1
Atom   4C    basis set group =>   1
Atom   5H    basis set group =>   2
Atom   6H    basis set group =>   2
Atom   7H    basis set group =>   2
Atom   8H    basis set group =>   2
Atom   9H    basis set group =>   2
Atom  10Na   basis set group =>   3

-------------------------
BASIS SET IN INPUT FORMAT
-------------------------

 # Basis set for element : H 
 NewGTO H 
 S 3 
   1      13.0107010000      0.0334854848
   2       1.9622572000      0.2347218709
   3       0.4445379600      0.8137702853
 S 1 
   1       0.1219496200      1.0000000000
 P 1 
   1       0.8000000000      1.0000000000
  end;

 # Basis set for element : C 
 NewGTO C 
 S 5 
   1    1238.4016938000      0.0055173650
   2     186.2900499200      0.0410888285
   3      42.2511763460      0.1822538213
   4      11.6765579320      0.4682845944
   5       3.5930506482      0.4457581734
 S 1 
   1       0.4024514736      1.0000000000
 S 1 
   1       0.1309018267      1.0000000000
 P 3 
   1       9.4680970621      0.0568883320
   2       2.0103545142      0.3129405934
   3       0.5477100471      0.7606501651
 P 1 
   1       0.1526861379      1.0000000000
 D 1 
   1       0.8000000000      1.0000000000
  end;

 # Basis set for element : Na
 NewGTO Na
 S 5 
   1    4098.2003908000     -0.0058297344
   2     616.4937403100     -0.0434692744
   3     139.9664400100     -0.1935227137
   4      39.0734410510     -0.4848664581
   5      11.9298472050     -0.4171101287
 S 3 
   1      20.6599660300      0.0857687068
   2       1.9838860978     -0.5624046937
   3       0.6483632394     -0.5184461021
 S 1 
   1       0.0524439674      1.0000000000
 S 1 
   1       0.0280481607      1.0000000000
 P 5 
   1      75.4018620170      0.0154353625
   2      17.2748189780      0.0997382932
   3       5.1842347425      0.3120959397
   4       1.6601211973      0.4929567481
   5       0.5123252896      0.3242039832
 P 1 
   1       0.0520000000      1.0000000000
 D 1 
   1       0.1310000000      1.0000000000
  end;

---------------------------------
AUXILIARY/J BASIS SET INFORMATION
---------------------------------
There are 3 groups of distinct atoms

 Group   1 Type C   : 12s5p4d2f1g contracted to 6s4p3d1f1g pattern {711111/2111/211/2/1}
 Group   2 Type H   : 5s2p1d contracted to 3s1p1d pattern {311/2/1}
 Group   3 Type Na  : 14s5p5d2f1g contracted to 8s4p4d1f1g pattern {71111111/2111/2111/2/1}

Atom   0C    basis set group =>   1
Atom   1C    basis set group =>   1
Atom   2C    basis set group =>   1
Atom   3C    basis set group =>   1
Atom   4C    basis set group =>   1
Atom   5H    basis set group =>   2
Atom   6H    basis set group =>   2
Atom   7H    basis set group =>   2
Atom   8H    basis set group =>   2
Atom   9H    basis set group =>   2
Atom  10Na   basis set group =>   3

-------------------------------------
AUXILIARY/J BASIS SET IN INPUT FORMAT
-------------------------------------

 # Auxiliary/J basis set for element : H 
 NewAuxJGTO H 
 S 3 
   1      15.6752927000      0.1007184237
   2       3.6063578000      0.3404257499
   3       1.2080016000      0.6491996172
 S 1 
   1       0.4726794000      1.0000000000
 S 1 
   1       0.2018100000      1.0000000000
 P 2 
   1       2.0281365000      0.5596620919
   2       0.5358730000      0.5596620919
 D 1 
   1       2.2165124000      1.0000000000
  end;

 # Auxiliary/J basis set for element : C 
 NewAuxJGTO C 
 S 7 
   1    1861.0916331000      0.0134602335
   2     642.9939764000      0.0299160374
   3     235.1105725000      0.1008649584
   4      90.7028894000      0.2370970548
   5      36.7794552000      0.3924037254
   6      15.6046273000      0.3195862154
   7       6.8907294000      0.0530104441
 S 1 
   1       3.1478850000     -1.0000000000
 S 1 
   1       1.4777287000      1.0000000000
 S 1 
   1       0.7076466000      1.0000000000
 S 1 
   1       0.3430122000      1.0000000000
 S 1 
   1       0.1669453000      1.0000000000
 P 2 
   1      13.5472892000     -0.6769313712
   2       5.4669419000     -0.3779500978
 P 1 
   1       2.1751721000      1.0000000000
 P 1 
   1       0.8582194000      1.0000000000
 P 1 
   1       0.3376720000      1.0000000000
 D 2 
   1       5.9287253000     -0.3533329857
   2       1.9809209000     -0.7456525731
 D 1 
   1       0.8055417000     -1.0000000000
 D 1 
   1       0.3531244000     -1.0000000000
 F 2 
   1       1.6755626000      0.6311076882
   2       0.5997536000      0.4968166032
 G 1 
   1       1.0024600000     -1.0000000000
  end;

 # Auxiliary/J basis set for element : Na
 NewAuxJGTO Na
 S 7 
   1    3754.9468758000      0.0266103878
   2    1406.4560878000      0.0461652944
   3     543.4611528000      0.1540699226
   4     216.2389118000      0.3205288758
   5      88.4180110000      0.4351106202
   6      37.0700801000      0.1884246527
   7      15.8976971000     -0.0478317760
 S 1 
   1       6.9557845000      1.0000000000
 S 1 
   1       3.0964156000      1.0000000000
 S 1 
   1       1.3983233000      1.0000000000
 S 1 
   1       0.6386578000      1.0000000000
 S 1 
   1       0.2940844000     -1.0000000000
 S 1 
   1       0.1360866000      1.0000000000
 S 1 
   1       0.0630775000      1.0000000000
 P 2 
   1      19.2914768000      0.3849754110
   2       5.8156595000     -1.2083970342
 P 1 
   1       1.7285804000      1.0000000000
 P 1 
   1       0.5094901000      1.0000000000
 P 1 
   1       0.1497524000     -1.0000000000
 D 2 
   1      14.0911593000      0.7472789599
   2       3.9826616000      0.3816952701
 D 1 
   1       1.3285602000     -1.0000000000
 D 1 
   1       0.4969388000     -1.0000000000
 D 1 
   1       0.1937075000      1.0000000000
 F 2 
   1       0.1873532000      1.3664920494
   2       0.0980271000     -0.5296690210
 G 1 
   1       0.0701600000      1.0000000000
  end;


Checking for AutoStart:
The File: test1.gbw exists
Trying to determine its content:
     ... Fine, the file contains calculation information
     ... Fine, the calculation information was read
     ... Fine, the file contains a basis set
     ... Fine, the basis set was read
     ... Fine, the file contains a geometry
     ... Fine, the geometry was read
     ... Fine, the file contains a set of orbitals
     ... Fine, the orbitals can be read
     => possible old guess file was deleted
     => GBW file was renamed to GES file
     => GES file is set as startup file
     => Guess is set to MORead
     ... now leaving AutoStart

------------------------------------------------------------------------------
                             ORCA STARTUP CALCULATIONS
                           -- RI-GTO INTEGRALS CHOSEN --
------------------------------------------------------------------------------
------------------------------------------------------------------------------
                   ___                                                        
                  /   \      - P O W E R E D   B Y -                         
                 /     \                                                     
                 |  |  |   _    _      __       _____    __    __             
                 |  |  |  | |  | |    /  \     |  _  \  |  |  /  |          
                  \  \/   | |  | |   /    \    | | | |  |  | /  /          
                 / \  \   | |__| |  /  /\  \   | |_| |  |  |/  /          
                |  |  |   |  __  | /  /__\  \  |    /   |      \           
                |  |  |   | |  | | |   __   |  |    \   |  |\   \          
                \     /   | |  | | |  |  |  |  | |\  \  |  | \   \       
                 \___/    |_|  |_| |__|  |__|  |_| \__\ |__|  \__/        
                                                                              
                      - O R C A' S   B I G   F R I E N D -                    
                                      &                                       
                       - I N T E G R A L  F E E D E R -                       
                                                                              
 v1 FN, 2020, v2 2021, v3 2022-2024                                           
------------------------------------------------------------------------------


----------------------
SHARK INTEGRAL PACKAGE
----------------------

Number of atoms                             ...     11
Number of basis functions                   ...    110
Number of shells                            ...     52
Maximum angular momentum                    ...      2
Integral batch strategy                     ... SHARK/LIBINT Hybrid
RI-J (if used) integral strategy            ... SPLIT-RIJ (Revised 2003 algorithm where possible)
Printlevel                                  ...      1
Contraction scheme used                     ... SEGMENTED contraction
Prescreening option                         ... SCHWARTZ
   Thresh                                   ... 1.000e-10
   Tcut                                     ... 1.000e-11
   Tpresel                                  ... 1.000e-11 
Coulomb Range Separation                    ... NOT USED
Exchange Range Separation                   ... Long Range
   Mu parameter                             ... 3.000e-01
   Scaling (regular/separated)              ... 1.670e-01 8.330e-01
Robust (split-)RI terms used:
  metric    (central integrals)             ... YES
  density   (r.h.s.  integrals)             ... YES
  potential (l.h.s.  integrals)             ... YES
Multipole approximations                    ... NOT USED
Finite Nucleus Model                        ... NOT USED
CABS basis                                  ... NOT available
Auxiliary Coulomb fitting basis             ... AVAILABLE
   # of basis functions in Aux-J            ...    356
   # of shells in Aux-J                     ...    118
   Maximum angular momentum in Aux-J        ...      4
Auxiliary J/K fitting basis                 ... NOT available
Auxiliary Correlation fitting basis         ... NOT available
Auxiliary 'external' fitting basis          ... NOT available

Checking pre-screening integrals            ... done (  0.0 sec) Dimension = 52
   => SHARK Basis and OBASIS are compatible. Storing Pre-screening
Shell pair information
Shell pair cut-off parameter TPreSel        ...   1.0e-11
Total number of shell pairs                 ...      1378
Shell pairs after pre-screening             ...      1353
Total number of primitive shell pairs       ...      5356
Primitive shell pairs kept                  ...      4050
          la=0 lb=0:    425 shell pairs
          la=1 lb=0:    478 shell pairs
          la=1 lb=1:    153 shell pairs
          la=2 lb=0:    174 shell pairs
          la=2 lb=1:    102 shell pairs
          la=2 lb=2:     21 shell pairs

Checking whether 4 symmetric matrices of dimension 110 fit in memory
:Max Core in MB      =   4096.00
 MB in use           =      5.09
 MB left             =   4090.91
 MB needed           =      0.19
 Data fit in memory  = YES
Calculating RI/J V-Matrix + Cholesky decomp.... done (  0.0 sec)
Calculating Nuclear repulsion               ... done (  0.0 sec) ENN=    218.832744934836 Eh

Diagonalization of the overlap matrix:
Smallest eigenvalue                        ... 1.324e-03
Time for diagonalization                   ...    0.001 sec
Threshold for overlap eigenvalues          ... 1.000e-07
Number of eigenvalues below threshold      ... 0
Time for construction of square roots      ...    0.000 sec
Total time needed                          ...    0.002 sec

-------------------
DFT GRID GENERATION
-------------------

General Integration Accuracy     IntAcc      ... 4.388
Radial Grid Type                 RadialGrid  ... OptM3 with GC (2021)
Angular Grid (max. ang.)         AngularGrid ... 4 (Lebedev-302)
Angular grid pruning method      GridPruning ... 4 (adaptive)
Weight generation scheme         WeightScheme... mBecke (2022)
Basis function cutoff            BFCut       ... 1.0000e-10
Integration weight cutoff        WCut        ... 1.0000e-14
Partially contracted basis set               ... off
Rotationally invariant grid construction     ... off
Angular grids for H and He will be reduced by one unit

Total number of grid points                  ...    53233
Total number of batches                      ...      837
Average number of points per batch           ...       63
Average number of grid points per atom       ...     4839

--------------------
COSX GRID GENERATION
--------------------

GRIDX 1
-------
General Integration Accuracy     IntAcc      ... 3.816
Radial Grid Type                 RadialGrid  ... OptM3 with GC (2021)
Angular Grid (max. ang.)         AngularGrid ... 1 (Lebedev-50)
Angular grid pruning method      GridPruning ... 4 (adaptive)
Weight generation scheme         WeightScheme... mBecke (2022)
Basis function cutoff            BFCut       ... 1.0000e-10
Integration weight cutoff        WCut        ... 1.0000e-14
Partially contracted basis set               ... on
Rotationally invariant grid construction     ... off
Angular grids for H and He will be reduced by one unit

Total number of grid points                  ...     7770
Total number of batches                      ...       68
Average number of points per batch           ...      114
Average number of grid points per atom       ...      706
UseSFitting                                  ... on

GRIDX 2
-------
General Integration Accuracy     IntAcc      ... 4.020
Radial Grid Type                 RadialGrid  ... OptM3 with GC (2021)
Angular Grid (max. ang.)         AngularGrid ... 2 (Lebedev-110)
Angular grid pruning method      GridPruning ... 4 (adaptive)
Weight generation scheme         WeightScheme... mBecke (2022)
Basis function cutoff            BFCut       ... 1.0000e-10
Integration weight cutoff        WCut        ... 1.0000e-14
Partially contracted basis set               ... on
Rotationally invariant grid construction     ... off
Angular grids for H and He will be reduced by one unit

Total number of grid points                  ...    14749
Total number of batches                      ...      122
Average number of points per batch           ...      120
Average number of grid points per atom       ...     1341
UseSFitting                                  ... on

GRIDX 3
-------
General Integration Accuracy     IntAcc      ... 4.338
Radial Grid Type                 RadialGrid  ... OptM3 with GC (2021)
Angular Grid (max. ang.)         AngularGrid ... 3 (Lebedev-194)
Angular grid pruning method      GridPruning ... 4 (adaptive)
Weight generation scheme         WeightScheme... mBecke (2022)
Basis function cutoff            BFCut       ... 1.0000e-10
Integration weight cutoff        WCut        ... 1.0000e-14
Partially contracted basis set               ... on
Rotationally invariant grid construction     ... off
Angular grids for H and He will be reduced by one unit

Total number of grid points                  ...    32988
Total number of batches                      ...      264
Average number of points per batch           ...      124
Average number of grid points per atom       ...     2999
UseSFitting                                  ... on
Grids setup in   0.6 sec
Initializing property integral containers    ... done (  0.0 sec)

SHARK setup successfully completed in   0.7 seconds

Maximum memory used throughout the entire STARTUP-calculation: 22.0 MB
-------------------------------------------------------------------------------
                                 ORCA GUESS
                   Start orbitals & Density for SCF / CASSCF
-------------------------------------------------------------------------------

------------
SCF SETTINGS
------------
Hamiltonian:
 Density Functional     Method          .... DFT(GTOs)
 Exchange Functional    Exchange        .... WB97X-V
 Correlation Functional Correlation     .... WB97X-V
 Gradients option       PostSCFGGA      .... off
 Hybrid DFT is turned on
   Fraction HF Exchange ScalHFX         ....  0.167000
   Scaling of DF-GGA-X  ScalDFX         ....  0.000000
   Scaling of DF-GGA-C  ScalDFC         ....  1.000000
   Scaling of DF-LDA-C  ScalLDAC        ....  1.000000
   Perturbative correction              ....  0.000000
 Long-range corrected/Screened/Range-Separated Hybrid DFT is turned on
   Amount of maximum screened exact exchange              ....  0.833000
   Range separation parameter mu (erf(mu*r12)/r12)        ....  0.300000
 RI-approximation to the Coulomb term is turned on
   Number of AuxJ basis functions       .... 356
   RIJ-COSX (HFX calculated with COS-X)).... on


General Settings:
 Integral files         IntName         .... test1
 Hartree-Fock type      HFTyp           .... RHF
 Total Charge           Charge          ....    0
 Multiplicity           Mult            ....    1
 Number of Electrons    NEL             ....   46
 Basis Dimension        Dim             ....  110
 Nuclear Repulsion      ENuc            ....    218.8327449348 Eh

Convergence Acceleration:
 AO-DIIS                CNVDIIS         .... on
   Start iteration      DIISMaxIt       ....    12
   Startup error        DIISStart       ....  0.200000
   # of expansion vecs  DIISMaxEq       ....     5
   Bias factor          DIISBfac        ....   1.050
   Max. coefficient     DIISMaxC        ....  10.000
 MO-DIIS                CNVKDIIS        .... off
 Trust-Rad. Augm. Hess. CNVTRAH         .... auto
   Auto Start mean grad. ratio tolernc. ....  1.125000
   Auto Start start iteration           ....     1
   Auto Start num. interpolation iter.  ....    10
   Max. Number of Micro iterations      ....    24
   Max. Number of Macro iterations      .... Maxiter - #DIIS iter
   Number of Davidson start vectors     ....     2
   Converg. threshold    (grad. norm)   ....   5.000e-05
   Grad. Scal. Fac. for Micro threshold ....   0.100
   Minimum threshold for Micro iter.    ....   1.000e-02
   NR start threshold (gradient norm)   ....   1.000e-04
   Initial trust radius                 ....   0.400
   Minimum AH scaling param. (alpha)    ....   1.000
   Maximum AH scaling param. (alpha)    .... 1000.000
   Quad. conv. algorithm                .... NR
   White noise on init. David. guess    .... on
   Maximum white noise                  ....   0.010
   Pseudo random numbers                .... off
   Inactive MOs                         .... canonical
   Orbital update algorithm             .... Taylor
   Preconditioner                       .... Diag
   Full preconditioner red. dimension   ....   250
 SOSCF                 CNVSOSCF           .... on
   Start iteration     SOSCFMaxIt         ....   150
   Startup grad/error  SOSCFStart         ....  0.003300
   Hessian update      SOSCFHessUp        .... L-BFGS
   Autom. constraints  SOSCFAutoConstrain .... off
 Level Shifting         CNVShift        .... on
   Level shift para.    LevelShift      ....    0.2500
   Turn off err/grad.   ShiftErr        ....    0.0010
 Zerner damping         CNVZerner       .... off
 Static damping         CNVDamp         .... on
   Fraction old density DampFac         ....    0.7000
   Max. Damping (<1)    DampMax         ....    0.9800
   Min. Damping (>=0)   DampMin         ....    0.0000
   Turn off err/grad.   DampErr         ....    0.1000

SCF Procedure:
 Maximum # iterations   MaxIter         ....   125
 SCF integral mode      SCFMode         .... Direct
   Integral package                     .... SHARK and LIBINT hybrid scheme
 Reset frequency        DirectResetFreq ....    20
 Integral Threshold     Thresh          ....  1.000e-10 Eh
 Primitive CutOff       TCut            ....  1.000e-11 Eh

Convergence Tolerance:
 Convergence Check Mode ConvCheckMode   .... Total+1el-Energy
 Convergence forced     ConvForced      .... 1
 Energy Change          TolE            ....  1.000e-06 Eh
 1-El. energy change                    ....  1.000e-03 Eh
 Orbital Gradient       TolG            ....  5.000e-05
 Orbital Rotation angle TolX            ....  5.000e-05
 DIIS Error             TolErr          ....  1.000e-06

---------------------
INITIAL GUESS: MOREAD
---------------------
Guess MOs are being read from file: test1.ges
Input Geometry matches current geometry (good)
Input basis set matches current basis set (good)
Occupation numbers will be reassigned to an Aufbau configuration
MOs were renormalized
MOs were reorthogonalized (Cholesky)
                      ------------------
                      INITIAL GUESS DONE (   0.0 sec)
                      ------------------
----------------------
INITIAL GUESS ORBITALS
----------------------
                      0         1         2         3         4         5   
                 -38.54045 -10.25283 -10.24831 -10.24703 -10.24612 -10.24513
                   2.00000   2.00000   2.00000   2.00000   2.00000   2.00000
                  --------  --------  --------  --------  --------  --------
  0C   1s         0.000034 -0.988828  0.014755  0.000436 -0.000758  0.008891
  0C   2s        -0.000733 -0.045724  0.002290 -0.000219 -0.000437  0.001951
  0C   3s         0.002209  0.040662 -0.012762 -0.002648 -0.000689 -0.012996
  0C   1pz       -0.000049 -0.000652 -0.000176 -0.000009  0.000014 -0.000177
  0C   1px       -0.000009 -0.000522 -0.001264 -0.000070  0.000065  0.000535
  0C   1py        0.000013  0.000399 -0.000128 -0.000092 -0.000089  0.001243
  0C   2pz        0.000995  0.002602  0.000533  0.000186  0.000093  0.000552
  0C   2px       -0.000018 -0.004718  0.002628 -0.000061 -0.001466 -0.000487
  0C   2py        0.000155  0.006182 -0.000420  0.001232  0.000503 -0.003229
  0C   1dz2       0.000121  0.001586 -0.000936 -0.000197 -0.000055 -0.000929
  0C   1dxz      -0.000045 -0.000006  0.000058 -0.000020  0.000021 -0.000046
  0C   1dyz       0.000063  0.000021  0.000031 -0.000005  0.000024 -0.000043
  0C   1dx2y2     0.000002  0.000069  0.001330  0.000015 -0.000019 -0.001073
  0C   1dxy      -0.000029  0.001418 -0.000149 -0.000282 -0.000260  0.000606
  1C   1s         0.000033 -0.015404 -0.987338 -0.053710  0.002303 -0.000087
  1C   2s        -0.000737  0.000983 -0.046304 -0.004238 -0.000052  0.000236
  1C   3s         0.002313 -0.011447  0.041409  0.014531 -0.003310  0.001983
  1C   1pz       -0.000048 -0.000196 -0.000644  0.000148 -0.000010 -0.000000
  1C   1px        0.000006  0.001303  0.000422  0.000594 -0.000144 -0.000025
  1C   1py        0.000011 -0.000209  0.000780 -0.001094  0.000049  0.000104
  1C   2pz        0.000998  0.000637  0.002601 -0.000425  0.000188 -0.000141
  1C   2px        0.000184 -0.002868  0.004466 -0.000346  0.001247  0.000223
  1C   2py        0.000155  0.000228  0.005906  0.003201  0.000290 -0.001273
  1C   1dz2       0.000119 -0.000929  0.001609  0.001016 -0.000223  0.000135
  1C   1dxz       0.000045 -0.000058  0.000007 -0.000046 -0.000011 -0.000025
  1C   1dyz       0.000061  0.000029  0.000002  0.000046  0.000015  0.000011
  1C   1dx2y2    -0.000010  0.001318  0.000362  0.001145 -0.000198  0.000028
  1C   1dxy       0.000026  0.000170 -0.001424  0.000553  0.000217 -0.000241
  2C   1s         0.000033 -0.000326 -0.054376  0.984568 -0.074998 -0.002410
  2C   2s        -0.000732  0.000294 -0.000854  0.046211 -0.005245  0.000032
  2C   3s         0.002201  0.001308 -0.010030 -0.041883  0.015723  0.002882
  2C   1pz       -0.000048 -0.000002 -0.000218  0.000640  0.000135  0.000010
  2C   1px        0.000013  0.000101  0.000246 -0.000902 -0.000836 -0.000005
  2C   1py       -0.000003  0.000015 -0.001271  0.000125 -0.000911 -0.000143
  2C   2pz        0.000997 -0.000149  0.000718 -0.002589 -0.000363 -0.000176
  2C   2px        0.000165 -0.001423 -0.000646 -0.007087  0.003129 -0.000604
  2C   2py       -0.000083 -0.000121  0.002456  0.002635  0.001209  0.001218
  2C   1dz2       0.000120  0.000134 -0.000852 -0.001617  0.001052  0.000208
  2C   1dxz       0.000072  0.000002  0.000010 -0.000005  0.000031 -0.000010
  2C   1dyz      -0.000023  0.000027  0.000061  0.000008  0.000056 -0.000018
  2C   1dx2y2     0.000023 -0.000218 -0.000988  0.001086 -0.000626 -0.000268
  2C   1dxy      -0.000017  0.000165 -0.000841 -0.000998 -0.001098  0.000052
  3C   1s         0.000033 -0.000107 -0.001811  0.075639  0.983546  0.069793
  3C   2s        -0.000735  0.000298  0.000290  0.001862  0.046233  0.004984
  3C   3s         0.002204  0.001973  0.001171  0.009358 -0.042275 -0.015853
  3C   1pz       -0.000048 -0.000001 -0.000013  0.000231  0.000635 -0.000139
  3C   1px       -0.000001 -0.000060  0.000001  0.001126 -0.000173  0.001126
  3C   1py       -0.000012 -0.000088 -0.000117  0.000639  0.000877 -0.000512
  3C   2pz        0.000996 -0.000142 -0.000105 -0.000770 -0.002573  0.000385
  3C   2px       -0.000039  0.000886 -0.000686 -0.002166  0.000370 -0.002238
  3C   2py       -0.000206  0.001114  0.001277 -0.001211  0.007684  0.002522
  3C   1dz2       0.000120  0.000134  0.000092  0.000818 -0.001639 -0.001054
  3C   1dxz      -0.000000 -0.000025  0.000028 -0.000062  0.000009 -0.000065
  3C   1dyz      -0.000076  0.000005  0.000006 -0.000013  0.000008  0.000015
  3C   1dx2y2    -0.000028  0.000261  0.000275 -0.000327 -0.001456  0.000127
  3C   1dxy      -0.000000  0.000025  0.000041 -0.001253  0.000186 -0.001257
  4C   1s         0.000033 -0.009539  0.000254  0.002945  0.070413 -0.986357
  4C   2s        -0.000731  0.001186  0.000278 -0.000259  0.001634 -0.046486
  4C   3s         0.002223 -0.011831  0.002273 -0.000773  0.009694  0.043676
  4C   1pz       -0.000048 -0.000188 -0.000001  0.000016  0.000227 -0.000621
  4C   1px       -0.000011 -0.000197 -0.000098  0.000126  0.000950 -0.000789
  4C   1py       -0.000007 -0.001218  0.000045  0.000015 -0.000883 -0.000365
  4C   2pz        0.000998  0.000587 -0.000150  0.000089 -0.000760  0.002547
  4C   2px       -0.000235  0.001211  0.001380 -0.000959 -0.001846 -0.007716
  4C   2py       -0.000016  0.002351 -0.000420 -0.001109  0.001655 -0.002289
  4C   1dz2       0.000120 -0.000889  0.000153 -0.000068  0.000824  0.001709
  4C   1dxz      -0.000072 -0.000010 -0.000001 -0.000015 -0.000027 -0.000007
  4C   1dyz      -0.000023  0.000063  0.000023  0.000027  0.000052  0.000004
  4C   1dx2y2     0.000023 -0.000925 -0.000196  0.000177 -0.000490 -0.001220
  4C   1dxy       0.000020  0.000799 -0.000195  0.000211  0.001205 -0.000773
  5H   1s        -0.000210 -0.000127 -0.000214  0.000182 -0.000233  0.005313
  5H   2s         0.000399  0.002032 -0.000698  0.000422 -0.001767 -0.005861
  5H   1pz       -0.000018 -0.000020  0.000025 -0.000021  0.000036 -0.000209
  5H   1px       -0.000045  0.000232 -0.000146  0.000071 -0.000139 -0.002131
  5H   1py       -0.000019  0.000104  0.000027  0.000109 -0.000052 -0.000701
  6H   1s        -0.000218 -0.000052  0.005228  0.000473  0.000183 -0.000171
  6H   2s         0.000397  0.002045 -0.005625 -0.002353  0.000821 -0.000512
  6H   1pz       -0.000018 -0.000024 -0.000210  0.000006 -0.000026  0.000022
  6H   1px        0.000027 -0.000136  0.001293  0.000244 -0.000146  0.000002
  6H   1py        0.000044 -0.000245  0.001781  0.000330 -0.000091  0.000143
  7H   1s        -0.000218 -0.000196  0.000126 -0.005246  0.000582 -0.000165
  7H   2s         0.000387 -0.000553  0.001815  0.005676 -0.002508 -0.000760
  7H   1pz       -0.000018  0.000026 -0.000031  0.000210  0.000001  0.000024
  7H   1px        0.000049  0.000140 -0.000175 -0.002099  0.000435  0.000118
  7H   1py       -0.000014  0.000016  0.000053  0.000680 -0.000142 -0.000117
  8H   1s        -0.000214 -0.000206 -0.000201 -0.000251 -0.005253 -0.000535
  8H   2s         0.000398 -0.000586 -0.000495 -0.001720  0.005702  0.002537
  8H   1pz       -0.000018  0.000025  0.000022  0.000037  0.000209 -0.000005
  8H   1px        0.000003 -0.000080  0.000074  0.000006 -0.000003  0.000009
  8H   1py       -0.000051 -0.000119 -0.000112 -0.000137  0.002213  0.000455
  9H   1s        -0.000231  0.004692 -0.000114  0.000212  0.000257 -0.000120
  9H   2s         0.000342 -0.004669  0.002145  0.000657  0.000379  0.001792
  9H   1pz       -0.000016 -0.000201 -0.000012 -0.000026 -0.000021 -0.000015
  9H   1px       -0.000038 -0.001693  0.000114  0.000019  0.000105  0.000065
  9H   1py        0.000015  0.002005 -0.000221 -0.000130 -0.000001 -0.000216
 10Na  1s        -0.995987  0.000015  0.000015 -0.000015 -0.000015  0.000013
 10Na  2s        -0.016717 -0.000229 -0.000231  0.000226  0.000220 -0.000204
 10Na  3s        -0.010370 -0.003272 -0.003388  0.003329  0.003237 -0.003019
 10Na  4s         0.002935 -0.000805 -0.000734  0.000689  0.000668 -0.000590
 10Na  1pz        0.000068  0.000316  0.000327 -0.000320 -0.000311  0.000289
 10Na  1px        0.000000 -0.000165  0.000183 -0.000260  0.000039 -0.000268
 10Na  1py        0.000000  0.000230  0.000222  0.000122  0.000283 -0.000070
 10Na  2pz        0.005660  0.003723  0.003760 -0.003661 -0.003558  0.003287
 10Na  2px        0.000002 -0.001348  0.001478 -0.002105  0.000316 -0.002167
 10Na  2py        0.000000  0.001911  0.001784  0.000977  0.002276 -0.000572
 10Na  1dz2      -0.002602 -0.001083 -0.001094  0.001059  0.001028 -0.000948
 10Na  1dxz      -0.000001  0.001201 -0.001325  0.001885 -0.000283  0.001943
 10Na  1dyz      -0.000001 -0.001698 -0.001599 -0.000877 -0.002041  0.000509
 10Na  1dx2y2    -0.000001  0.000305  0.000241  0.000705 -0.000947 -0.000843
 10Na  1dxy      -0.000001  0.000865 -0.000875 -0.000600  0.000086 -0.000568
                      6         7         8         9        10        11   
                  -2.36143  -1.28437  -1.28436  -1.28392  -0.90767  -0.77317
                   2.00000   2.00000   2.00000   2.00000   2.00000   2.00000
                  --------  --------  --------  --------  --------  --------
  0C   1s         0.000079 -0.000220  0.000730  0.002600  0.122725  0.041953
  0C   2s        -0.000066 -0.002129  0.006040  0.001207 -0.234115 -0.081436
  0C   3s         0.004335  0.010344 -0.028553 -0.011558 -0.062269 -0.026686
  0C   1pz       -0.000032  0.000156 -0.000542 -0.002138 -0.003975 -0.001309
  0C   1px       -0.000155  0.000169 -0.000163  0.000977  0.039848 -0.094462
  0C   1py        0.000209 -0.000139  0.000304 -0.001304 -0.056679 -0.064664
  0C   2pz        0.001592  0.002648 -0.007605 -0.007244 -0.004162 -0.001641
  0C   2px        0.000622 -0.009759  0.001729  0.001932  0.010104 -0.030918
  0C   2py       -0.000429 -0.002455 -0.009309 -0.003011 -0.010794 -0.029055
  0C   1dz2       0.000065  0.000037 -0.000145 -0.000820  0.007824  0.001652
  0C   1dxz       0.000014 -0.000189  0.000233  0.000665  0.000499 -0.000305
  0C   1dyz      -0.000024  0.000050 -0.000430 -0.000930 -0.000694 -0.000409
  0C   1dx2y2    -0.000053  0.000179  0.000043 -0.000044 -0.000029  0.008855
  0C   1dxy      -0.000215 -0.000057 -0.000054 -0.000147  0.000607 -0.003831
  1C   1s         0.000076  0.000648  0.000483  0.002589  0.125400 -0.143674
  1C   2s        -0.000034  0.005128  0.004019  0.001258 -0.236165  0.275269
  1C   3s         0.004745 -0.024663 -0.019692 -0.011423 -0.066350  0.090742
  1C   1pz       -0.000038 -0.000507 -0.000381 -0.002151 -0.004056  0.004624
  1C   1px        0.000136  0.000159  0.000085 -0.001007 -0.038363 -0.058075
  1C   1py        0.000181  0.000190  0.000193 -0.001394 -0.054448  0.025071
  1C   2pz        0.001604 -0.006492 -0.005009 -0.007102 -0.004293  0.005495
  1C   2px       -0.000214 -0.009425  0.002766 -0.002064 -0.011861 -0.002671
  1C   2py       -0.000461 -0.002562 -0.009342 -0.002706 -0.019314  0.036086
  1C   1dz2       0.000054 -0.000142 -0.000100 -0.000842  0.007746 -0.005387
  1C   1dxz      -0.000013 -0.000295 -0.000082 -0.000654 -0.000495  0.000094
  1C   1dyz      -0.000017 -0.000258 -0.000296 -0.000896 -0.000682  0.000579
  1C   1dx2y2    -0.000074 -0.000122  0.000117 -0.000058  0.000269 -0.004085
  1C   1dxy       0.000220  0.000007  0.000083  0.000188 -0.000643 -0.004381
  2C   1s         0.000076  0.000675 -0.000413  0.002593  0.126032 -0.130050
  2C   2s        -0.000016  0.005408 -0.003643  0.001282 -0.236863  0.249076
  2C   3s         0.004262 -0.025463  0.017606 -0.011177 -0.063848  0.082571
  2C   1pz       -0.000036 -0.000533  0.000326 -0.002151 -0.004057  0.004191
  2C   1px        0.000220  0.000255 -0.000183 -0.001632 -0.062975 -0.035157
  2C   1py       -0.000068 -0.000065  0.000099  0.000530  0.020666 -0.067088
  2C   2pz        0.001589 -0.006780  0.004481 -0.007152 -0.004285  0.004951
  2C   2px       -0.000723 -0.009027  0.002575 -0.003079 -0.020083  0.015199
  2C   2py        0.000187 -0.003042 -0.009481  0.001233  0.005507 -0.035528
  2C   1dz2       0.000059 -0.000148  0.000084 -0.000845  0.007826 -0.004848
  2C   1dxz      -0.000020 -0.000403  0.000208 -0.001059 -0.000799  0.000354
  2C   1dyz       0.000006  0.000048 -0.000184  0.000344  0.000262 -0.000453
  2C   1dx2y2     0.000190 -0.000011 -0.000108  0.000159 -0.000386 -0.005778
  2C   1dxy      -0.000139 -0.000114 -0.000094 -0.000113  0.000294 -0.003608
  3C   1s         0.000075 -0.000166 -0.000714  0.002599  0.125415  0.063210
  3C   2s        -0.000023 -0.001772 -0.006217  0.001450 -0.235644 -0.120867
  3C   3s         0.004499  0.008545  0.029014 -0.012174 -0.062810 -0.039428
  3C   1pz       -0.000036  0.000127  0.000557 -0.002154 -0.004025 -0.001988
  3C   1px       -0.000001  0.000052 -0.000013 -0.000001  0.000391 -0.107455
  3C   1py       -0.000227  0.000123  0.000345  0.001698  0.066216 -0.005786
  3C   2pz        0.001594  0.002113  0.007694 -0.007307 -0.004251 -0.002409
  3C   2px       -0.000068 -0.009593  0.002882  0.000195  0.000247 -0.041582
  3C   2py        0.000537 -0.002563 -0.008581  0.003727  0.020056  0.012387
  3C   1dz2       0.000057  0.000030  0.000159 -0.000846  0.007783  0.002366
  3C   1dxz       0.000000 -0.000134  0.000038  0.000002  0.000007 -0.000456
  3C   1dyz       0.000019 -0.000107 -0.000428  0.001115  0.000833  0.000229
  3C   1dx2y2    -0.000234  0.000013  0.000059 -0.000196  0.000493 -0.001216
  3C   1dxy       0.000000  0.000164 -0.000048 -0.000002 -0.000049  0.009116
  4C   1s         0.000075 -0.000715 -0.000012  0.002604  0.124950  0.169823
  4C   2s        -0.000019 -0.006460 -0.000233  0.001463 -0.234859 -0.324793
  4C   3s         0.004304  0.029973  0.001523 -0.011733 -0.069020 -0.110167
  4C   1pz       -0.000034  0.000559  0.000010 -0.002159 -0.004032 -0.005408
  4C   1px       -0.000217  0.000350  0.000007  0.001617  0.062822 -0.013175
  4C   1py       -0.000073  0.000126  0.000045  0.000519  0.020278 -0.011567
  4C   2pz        0.001588  0.007908  0.000252 -0.007348 -0.004302 -0.006523
  4C   2px        0.000577 -0.008468  0.002760  0.003338  0.021431  0.033614
  4C   2py        0.000292 -0.002406 -0.009823  0.001005  0.007415  0.008943
  4C   1dz2       0.000058  0.000150 -0.000007 -0.000856  0.007728  0.006336
  4C   1dxz       0.000019 -0.000421  0.000029  0.001067  0.000798  0.000604
  4C   1dyz       0.000005 -0.000128 -0.000137  0.000343  0.000256  0.000162
  4C   1dx2y2     0.000190 -0.000047 -0.000105  0.000156 -0.000505  0.002257
  4C   1dxy       0.000146 -0.000045  0.000133  0.000120 -0.000258  0.002481
  5H   1s        -0.000581  0.000280  0.000001 -0.000966 -0.057832 -0.156984
  5H   2s        -0.000290 -0.003725 -0.000174  0.001854 -0.010701 -0.045635
  5H   1pz        0.000098 -0.000797 -0.000025  0.000457  0.000131 -0.000100
  5H   1px        0.000076 -0.000087 -0.000121  0.000417  0.008179  0.016275
  5H   1py        0.000018 -0.000041  0.000379  0.000139  0.002656  0.005173
  6H   1s        -0.000587 -0.000301 -0.000215 -0.000955 -0.057938  0.132727
  6H   2s        -0.000277  0.002818  0.002324  0.001763 -0.011103  0.038015
  6H   1pz        0.000097  0.000644  0.000500  0.000432  0.000135  0.000078
  6H   1px       -0.000049  0.000141 -0.000277 -0.000250 -0.005078  0.007848
  6H   1py       -0.000058 -0.000206  0.000127 -0.000355 -0.006908  0.012173
  7H   1s        -0.000596 -0.000288  0.000190 -0.000953 -0.058479  0.120426
  7H   2s        -0.000328  0.003070 -0.002025  0.001765 -0.010777  0.034665
  7H   1pz        0.000099  0.000675 -0.000450  0.000437  0.000133  0.000072
  7H   1px       -0.000071 -0.000019  0.000146 -0.000417 -0.008268  0.012164
  7H   1py        0.000025  0.000238  0.000288  0.000126  0.002731 -0.004921
  8H   1s        -0.000582  0.000071  0.000289 -0.000976 -0.057927 -0.058257
  8H   2s        -0.000244 -0.000998 -0.003562  0.001799 -0.010545 -0.016971
  8H   1pz        0.000098 -0.000216 -0.000773  0.000454  0.000135 -0.000032
  8H   1px        0.000003  0.000374 -0.000113 -0.000008 -0.000000 -0.001326
  8H   1py        0.000074 -0.000018 -0.000097  0.000436  0.008663  0.006355
  9H   1s        -0.000564  0.000261 -0.000171 -0.000773 -0.048853 -0.039717
  9H   2s        -0.000315 -0.000787  0.003342  0.001639 -0.006778 -0.009687
  9H   1pz        0.000097 -0.000278  0.000730  0.000447  0.000150 -0.000015
  9H   1px        0.000045  0.000289  0.000158  0.000285  0.004307  0.001831
  9H   1py       -0.000067  0.000188  0.000110 -0.000196 -0.005452 -0.004121
 10Na  1s        -0.266651 -0.000079 -0.000033 -0.005230  0.005339  0.000013
 10Na  2s         1.022335  0.000348  0.000143  0.022700 -0.028007 -0.000061
 10Na  3s        -0.045658  0.000708  0.000276  0.040858 -0.014334  0.000099
 10Na  4s         0.019891 -0.000313 -0.000158 -0.016900 -0.003959 -0.000081
 10Na  1pz       -0.018324  0.016676  0.005530  0.994649 -0.051093 -0.000112
 10Na  1px        0.000032  0.957691 -0.275917 -0.014527 -0.000124  0.019625
 10Na  1py       -0.000003  0.275793  0.957787 -0.009954  0.000110  0.007848
 10Na  2pz        0.010489 -0.000034  0.000012 -0.002482  0.012741 -0.000039
 10Na  2px        0.000009  0.009430 -0.002735 -0.000159  0.000058 -0.011228
 10Na  2py        0.000010  0.002711  0.009390 -0.000101 -0.000050 -0.004491
 10Na  1dz2      -0.005203  0.000223  0.000063  0.013709 -0.005692 -0.000019
 10Na  1dxz      -0.000007  0.011514 -0.003304 -0.000167 -0.000041  0.007638
 10Na  1dyz      -0.000008  0.003321  0.011543 -0.000110  0.000010  0.003070
 10Na  1dx2y2     0.000002  0.000001 -0.000020 -0.000010  0.000004  0.000001
 10Na  1dxy      -0.000005  0.000016 -0.000002 -0.000004  0.000036  0.000022
                     12        13        14        15        16        17   
                  -0.76958  -0.63022  -0.62347  -0.59259  -0.45944  -0.45585
                   2.00000   2.00000   2.00000   2.00000   2.00000   2.00000
                  --------  --------  --------  --------  --------  --------
  0C   1s        -0.161073 -0.032382  0.128181 -0.034740  0.015067  0.037273
  0C   2s         0.314974  0.064620 -0.258786  0.069226 -0.037580 -0.093724
  0C   3s         0.099528  0.065705 -0.255244  0.057788 -0.037940 -0.105636
  0C   1pz        0.005354  0.000680 -0.003636 -0.001130 -0.002328 -0.006205
  0C   1px       -0.018449  0.132245 -0.034947  0.131213  0.191525  0.178689
  0C   1py       -0.015717  0.050092  0.092585 -0.173233  0.010372 -0.233490
  0C   2pz        0.006102  0.003267 -0.013471 -0.001990 -0.002409 -0.006397
  0C   2px       -0.024847  0.013150  0.065314  0.039068  0.046408  0.070595
  0C   2py        0.005342  0.034569 -0.053995 -0.057534 -0.009232 -0.085196
  0C   1dz2      -0.006178 -0.000954  0.003458  0.000063  0.000090  0.000202
  0C   1dxz      -0.000481  0.000495  0.000222  0.000751  0.001220  0.001025
  0C   1dyz       0.000475  0.000327 -0.000108 -0.001013  0.000075 -0.001507
  0C   1dx2y2     0.004003 -0.004864  0.000490  0.002648 -0.013275  0.001596
  0C   1dxy       0.002504 -0.000756  0.009040  0.004238  0.000706 -0.009948
  1C   1s        -0.094789  0.100079 -0.079342 -0.005720  0.042523 -0.002499
  1C   2s         0.182097 -0.196125  0.154388  0.006555 -0.110268  0.004678
  1C   3s         0.064849 -0.200013  0.162324  0.004974 -0.115964  0.018270
  1C   1pz        0.003096 -0.002306  0.001362 -0.002034 -0.007169  0.000579
  1C   1px        0.074048 -0.006599 -0.162617 -0.101236 -0.207706 -0.145104
  1C   1py       -0.063860  0.141970 -0.031819 -0.176321 -0.257234  0.090332
  1C   2pz        0.003741 -0.010026  0.007615 -0.005275 -0.007496  0.000116
  1C   2px        0.041979 -0.061255  0.005884 -0.041359 -0.066677 -0.030686
  1C   2py        0.000734 -0.043113  0.046881 -0.060662 -0.077780  0.031984
  1C   1dz2      -0.003391  0.002816 -0.002277  0.000756  0.000002  0.000238
  1C   1dxz       0.000556 -0.000284 -0.000567 -0.000691 -0.001256 -0.000911
  1C   1dyz       0.000041  0.000278  0.000084 -0.001120 -0.001563  0.000629
  1C   1dx2y2     0.008313 -0.000673 -0.005352  0.002439 -0.004648 -0.014185
  1C   1dxy       0.001466 -0.007808  0.003245 -0.004494  0.011694 -0.002288
  2C   1s         0.108969 -0.130284  0.002217 -0.010349  0.012836 -0.040735
  2C   2s        -0.209181  0.254952 -0.004003  0.014925 -0.032429  0.106192
  2C   3s        -0.073204  0.257280 -0.006866  0.006182 -0.039110  0.096238
  2C   1pz       -0.003471  0.002995 -0.000276 -0.002119 -0.002002  0.007285
  2C   1px       -0.016213 -0.142856 -0.058696 -0.199714 -0.037131  0.329530
  2C   1py       -0.092512  0.036827 -0.123348  0.085476  0.157860 -0.053918
  2C   2pz       -0.004175  0.012910 -0.001120 -0.004600 -0.002137  0.007334
  2C   2px       -0.029752  0.086349 -0.026922 -0.069847 -0.019818  0.096218
  2C   2py       -0.024725 -0.030056 -0.032820  0.030922  0.033865 -0.014964
  2C   1dz2       0.003983 -0.003582  0.000219  0.000432 -0.000021  0.000157
  2C   1dxz      -0.000486 -0.000102 -0.000320 -0.001270 -0.000218  0.001981
  2C   1dyz      -0.000266 -0.000011 -0.000514  0.000500  0.001036 -0.000320
  2C   1dx2y2    -0.002794  0.007515 -0.003615 -0.003532  0.009638 -0.009040
  2C   1dxy      -0.007546 -0.005842 -0.002698  0.003174  0.008894  0.011315
  3C   1s         0.159389  0.110164  0.062896 -0.020583 -0.036120 -0.024992
  3C   2s        -0.305515 -0.215767 -0.123219  0.035019  0.092018  0.062068
  3C   3s        -0.107854 -0.216868 -0.123013  0.034930  0.102743  0.075761
  3C   1pz       -0.005109 -0.002542 -0.001656 -0.001940  0.005971  0.004073
  3C   1px        0.045417 -0.074452  0.117394 -0.018682  0.077506 -0.164556
  3C   1py       -0.018409 -0.121455 -0.054365  0.230624 -0.259870 -0.153938
  3C   2pz       -0.006116 -0.010920 -0.007358 -0.003403  0.006326  0.004378
  3C   2px        0.017092 -0.018442  0.030423 -0.005931  0.013793 -0.041047
  3C   2py        0.032753  0.077568  0.053583  0.066043 -0.085456 -0.056006
  3C   1dz2       0.005876  0.003018  0.001794  0.000152  0.000077  0.000051
  3C   1dxz       0.000197 -0.000326  0.000515 -0.000084  0.000518 -0.001043
  3C   1dyz       0.000567 -0.000058  0.000091  0.001377 -0.001598 -0.000987
  3C   1dx2y2    -0.003165  0.008058  0.006260  0.003476  0.008861  0.004466
  3C   1dxy      -0.003761  0.002524 -0.003773  0.000399 -0.007455  0.012413
  4C   1s        -0.015279 -0.046971 -0.121418  0.003908 -0.033756  0.030266
  4C   2s         0.029372  0.091816  0.237214 -0.012084  0.087264 -0.075675
  4C   3s         0.024051  0.096742  0.220925 -0.011478  0.092703 -0.072838
  4C   1pz        0.000491  0.001019  0.002316 -0.002410  0.005987 -0.004602
  4C   1px        0.036627  0.090929  0.141327  0.182964 -0.273710  0.166180
  4C   1py       -0.112219 -0.106424  0.112604  0.038594 -0.010403  0.112801
  4C   2pz        0.000935  0.004789  0.011131 -0.006137  0.006094 -0.005058
  4C   2px        0.004258 -0.020892 -0.068207  0.078240 -0.080474  0.061285
  4C   2py       -0.048411 -0.044455  0.000502  0.017192 -0.017078  0.011354
  4C   1dz2      -0.000590 -0.001290 -0.003070  0.000765  0.000085 -0.000117
  4C   1dxz       0.000092  0.000205  0.000175  0.001241 -0.001666  0.000999
  4C   1dyz      -0.000511 -0.000529  0.000365  0.000296 -0.000006  0.000784
  4C   1dx2y2    -0.005690  0.000271  0.008168 -0.005561 -0.003428  0.010201
  4C   1dxy       0.008049  0.005498  0.002943 -0.002921 -0.012100 -0.003432
  5H   1s         0.013906  0.090121  0.256161  0.128546 -0.199312  0.138639
  5H   2s         0.005585  0.038716  0.104917  0.016933 -0.100660  0.070213
  5H   1pz       -0.000010  0.000022  0.000167  0.000497 -0.000577  0.000414
  5H   1px       -0.000862 -0.004976 -0.016559 -0.007201  0.006062 -0.005289
  5H   1py       -0.001811 -0.004213 -0.004181 -0.002771  0.004657  0.000767
  6H   1s         0.088144 -0.189547  0.174209  0.152026  0.248976  0.016326
  6H   2s         0.028200 -0.081880  0.067534  0.027388  0.125697  0.010180
  6H   1pz        0.000048 -0.000040  0.000093  0.000524  0.000725  0.000074
  6H   1px        0.006639 -0.008843  0.004693  0.005860  0.004948 -0.003657
  6H   1py        0.006768 -0.009345  0.010877  0.007026  0.007492  0.003260
  7H   1s        -0.102674  0.249187  0.008863  0.168108  0.060420 -0.254065
  7H   2s        -0.028851  0.107865 -0.003274  0.033910  0.030408 -0.129687
  7H   1pz       -0.000064  0.000063  0.000065  0.000527  0.000175 -0.000725
  7H   1px       -0.010918  0.015850 -0.000173  0.009753  0.003416 -0.008086
  7H   1py        0.002203 -0.005367 -0.002614 -0.002851  0.003461  0.004100
  8H   1s        -0.149767 -0.208283 -0.110518  0.190786 -0.191799 -0.108784
  8H   2s        -0.043035 -0.090363 -0.054648  0.044526 -0.096233 -0.054829
  8H   1pz       -0.000090 -0.000046  0.000032  0.000532 -0.000556 -0.000316
  8H   1px        0.000584 -0.001496  0.002340 -0.000358  0.002467 -0.004790
  8H   1py        0.016127  0.014006  0.007287 -0.011500  0.006917  0.003854
  9H   1s         0.129513  0.066725 -0.200797  0.189633  0.084276  0.223954
  9H   2s         0.033946  0.026625 -0.087442  0.044250  0.040939  0.110744
  9H   1pz        0.000064  0.000031  0.000013  0.000528  0.000256  0.000698
  9H   1px       -0.008956 -0.001032  0.009507 -0.007747  0.000679 -0.006521
  9H   1py        0.010290  0.005061 -0.009829  0.008787  0.005461  0.006215
 10Na  1s        -0.000071  0.000018  0.000288  0.001567 -0.000025 -0.000032
 10Na  2s         0.000373 -0.000105 -0.001512 -0.008155  0.000141  0.000192
 10Na  3s         0.000295 -0.000213 -0.001452 -0.009902  0.000067 -0.000200
 10Na  4s        -0.000359  0.000098  0.004409  0.035870  0.000034  0.001677
 10Na  1pz        0.000656 -0.000131 -0.002790 -0.016694  0.000143 -0.000067
 10Na  1px       -0.007899  0.000045  0.000427 -0.000363 -0.005379  0.007717
 10Na  1py        0.019709  0.000033 -0.000807  0.000673 -0.007745 -0.004885
 10Na  2pz        0.000069  0.000133 -0.002462 -0.020627 -0.000012 -0.000866
 10Na  2px        0.004423 -0.000135  0.000059  0.000080 -0.002788  0.004197
 10Na  2py       -0.011539 -0.000108  0.000913 -0.000427 -0.004231 -0.003523
 10Na  1dz2       0.000212 -0.000071 -0.000572 -0.002570  0.000012  0.000040
 10Na  1dxz      -0.003011  0.000100 -0.000051 -0.000082 -0.001764  0.002713
 10Na  1dyz       0.007877  0.000058 -0.000638  0.000305 -0.002506 -0.001414
 10Na  1dx2y2    -0.000023  0.001297  0.000996 -0.000074  0.000256  0.000525
 10Na  1dxy      -0.000081 -0.000827  0.001553 -0.000428 -0.000109 -0.000888
                     18        19        20        21        22        23   
                  -0.43077  -0.42406  -0.42263  -0.26491  -0.26469  -0.00551
                   2.00000   2.00000   2.00000   2.00000   2.00000   0.00000
                  --------  --------  --------  --------  --------  --------
  0C   1s         0.000480 -0.001317  0.006840 -0.003293 -0.008204  0.009305
  0C   2s        -0.005858  0.012060 -0.021740  0.014693  0.036210 -0.030339
  0C   3s         0.062580 -0.065475 -0.008919 -0.023977 -0.054733  0.029953
  0C   1pz       -0.000197 -0.010040  0.232856 -0.136153 -0.329495 -0.037544
  0C   1px        0.262809  0.086703  0.008612  0.009244 -0.009491 -0.005090
  0C   1py        0.107884  0.281478  0.007923  0.011580  0.002893  0.006676
  0C   2pz        0.000075 -0.005815  0.139252 -0.115186 -0.277645 -0.011592
  0C   2px        0.094349  0.081862  0.008217  0.035021 -0.000512  0.004570
  0C   2py        0.082425  0.089999  0.002945  0.013032 -0.027424  0.005264
  0C   1dz2      -0.000147 -0.000406  0.003019 -0.001256 -0.003056  0.002876
  0C   1dxz       0.001352  0.000857 -0.006531 -0.014949  0.009402  0.001522
  0C   1dyz       0.000655  0.001014  0.009314 -0.013426  0.000407 -0.002139
  0C   1dx2y2    -0.010156 -0.003857 -0.000096 -0.001334  0.000694 -0.000396
  0C   1dxy      -0.006891  0.015895  0.001298  0.000525 -0.000113 -0.000583
  1C   1s        -0.003310 -0.001702  0.006867  0.006709 -0.005725  0.009299
  1C   2s         0.008662 -0.006725 -0.022982 -0.029902  0.025451 -0.030379
  1C   3s        -0.000456  0.096223  0.002311  0.047866 -0.041451  0.039856
  1C   1pz        0.000499 -0.012359  0.234091  0.272188 -0.231477 -0.037534
  1C   1px       -0.270108 -0.092588 -0.009032  0.004183  0.013041  0.004213
  1C   1py        0.229630 -0.108216 -0.011688 -0.011489 -0.002220  0.006180
  1C   2pz        0.000669 -0.006547  0.139726  0.229688 -0.194752 -0.011686
  1C   2px       -0.133299  0.000507 -0.002363  0.031326  0.014965  0.000038
  1C   2py        0.104427  0.011577 -0.003823 -0.000252 -0.029818 -0.002211
  1C   1dz2       0.000087 -0.000558  0.003052  0.002565 -0.002165  0.002858
  1C   1dxz      -0.001454 -0.000703  0.006565 -0.008906 -0.015281 -0.001539
  1C   1dyz       0.001241 -0.000905  0.009018  0.011340  0.006893 -0.002108
  1C   1dx2y2    -0.008650 -0.004011 -0.000007  0.000936  0.001101 -0.000178
  1C   1dxy      -0.004232  0.016030  0.000253  0.000372  0.000312  0.000583
  2C   1s         0.003216  0.004801  0.007223  0.007550  0.004645  0.009312
  2C   2s        -0.002614 -0.002874 -0.022730 -0.033442 -0.020713 -0.029975
  2C   3s        -0.054337 -0.090675 -0.009801  0.051772  0.033720  0.031159
  2C   1pz        0.000039 -0.011586  0.233317  0.302499  0.188304 -0.037629
  2C   1px       -0.039610  0.144192 -0.000640 -0.004805 -0.008514  0.007286
  2C   1py       -0.326846  0.138242  0.009231  0.010186 -0.011093 -0.002377
  2C   2pz       -0.000203 -0.007319  0.139886  0.255318  0.158831 -0.012155
  2C   2px       -0.053783  0.008548 -0.005357  0.024883  0.001915 -0.004541
  2C   2py       -0.138204  0.085552  0.005888  0.013878 -0.035567  0.000700
  2C   1dz2       0.000026 -0.000036  0.003092  0.002857  0.001774  0.002953
  2C   1dxz      -0.000310  0.000109  0.010545  0.000602  0.008190 -0.002476
  2C   1dyz      -0.001753  0.000967 -0.003460 -0.012137  0.016545  0.000796
  2C   1dx2y2    -0.012244 -0.007662 -0.000810  0.000513 -0.000727  0.000507
  2C   1dxy      -0.003311  0.010901  0.000846  0.000619 -0.001055 -0.000373
  3C   1s         0.003475  0.005910  0.007281 -0.002115  0.008560  0.009380
  3C   2s        -0.019074 -0.018390 -0.023481  0.009349 -0.037949 -0.030330
  3C   3s         0.071327  0.020367 -0.002250 -0.015320  0.058278  0.037693
  3C   1pz       -0.001493 -0.012416  0.231968 -0.085503  0.346297 -0.037940
  3C   1px        0.149586 -0.318679 -0.015459  0.014979  0.003996 -0.000362
  3C   1py        0.166413  0.088822  0.012423 -0.002091  0.008575 -0.007452
  3C   2pz       -0.000981 -0.007905  0.138496 -0.072103  0.292531 -0.012556
  3C   2px        0.069192 -0.156087 -0.007653  0.037974  0.009797 -0.000895
  3C   2py        0.001944  0.006980  0.005049  0.005762 -0.021670  0.000666
  3C   1dz2      -0.000189 -0.000292  0.003051 -0.000797  0.003286  0.002896
  3C   1dxz       0.000822 -0.001692 -0.000145 -0.020752 -0.005150 -0.000005
  3C   1dyz       0.000768  0.000981 -0.011013  0.001243 -0.004988  0.002596
  3C   1dx2y2    -0.016443 -0.007752  0.000153  0.000001 -0.000028 -0.000685
  3C   1dxy      -0.004669  0.008067  0.000374 -0.001475 -0.000357 -0.000027
  4C   1s        -0.000860 -0.006444  0.006488 -0.008869  0.000773  0.008955
  4C   2s         0.012482  0.012742 -0.021400  0.039141 -0.003250 -0.029110
  4C   3s        -0.079101  0.028043 -0.005742 -0.059193  0.005630  0.028501
  4C   1pz        0.001195 -0.010805  0.231531 -0.355146  0.026412 -0.037822
  4C   1px       -0.121220  0.128501  0.013703 -0.008443  0.005436 -0.007419
  4C   1py       -0.137100 -0.349596 -0.015040 -0.004029 -0.013957 -0.003257
  4C   2pz        0.000947 -0.005653  0.138765 -0.299952  0.021836 -0.012615
  4C   2px        0.015186  0.044210  0.008195  0.021464  0.010124  0.004351
  4C   2py       -0.040159 -0.163191 -0.005581  0.003804 -0.037906  0.002580
  4C   1dz2       0.000140 -0.000125  0.003094 -0.003366  0.000230  0.002985
  4C   1dxz      -0.000497  0.001138 -0.010412  0.004339 -0.006970  0.002466
  4C   1dyz      -0.000709 -0.001767 -0.003488  0.003082  0.020154  0.000787
  4C   1dx2y2    -0.015178 -0.003776 -0.000625 -0.000106 -0.000903  0.000561
  4C   1dxy      -0.006870  0.011870  0.000280  0.000073  0.001202  0.000449
  5H   1s        -0.160284  0.025516 -0.000495  0.002204 -0.000158 -0.010855
  5H   2s        -0.089973  0.016563 -0.019972  0.018264 -0.001331 -0.069513
  5H   1pz       -0.000488 -0.000296  0.007404 -0.013536  0.001028 -0.000771
  5H   1px        0.005285  0.001893  0.000295 -0.000222 -0.000132  0.002485
  5H   1py       -0.000468 -0.008483 -0.000375 -0.000038  0.000479  0.000751
  6H   1s        -0.021783  0.150304  0.005674 -0.001646  0.001361 -0.010661
  6H   2s        -0.010836  0.086851 -0.016847 -0.013427  0.011703 -0.070285
  6H   1pz       -0.000068  0.000055  0.007508  0.010335 -0.008813 -0.000772
  6H   1px       -0.006742  0.002316 -0.000029 -0.000348 -0.000198 -0.001610
  6H   1py        0.004029  0.003749  0.000020  0.000043  0.000328 -0.002110
  7H   1s        -0.070351 -0.107111 -0.006743 -0.001811 -0.001161 -0.011023
  7H   2s        -0.039385 -0.060848 -0.023810 -0.015164 -0.009454 -0.069894
  7H   1pz       -0.000211 -0.000687  0.007440  0.011531  0.007194 -0.000761
  7H   1px       -0.004286 -0.001657 -0.000267 -0.000249  0.000010 -0.002488
  7H   1py       -0.006385  0.004748  0.000299 -0.000187  0.000420  0.000832
  8H   1s         0.164712  0.082336  0.002608  0.000586 -0.002312 -0.010566
  8H   2s         0.093149  0.048333 -0.018237  0.004454 -0.017777 -0.068999
  8H   1pz        0.000482 -0.000111  0.007436 -0.003253  0.013169 -0.000777
  8H   1px        0.003386 -0.007092 -0.000341 -0.000467 -0.000109 -0.000002
  8H   1py       -0.005014 -0.002405  0.000098 -0.000062  0.000206  0.002666
  9H   1s         0.088854 -0.163582 -0.010187  0.000640  0.002445 -0.010564
  9H   2s         0.046364 -0.092242 -0.023649  0.005983  0.015852 -0.065404
  9H   1pz        0.000284 -0.000837  0.006889 -0.005264 -0.011785 -0.000594
  9H   1px        0.002097  0.008074  0.000435 -0.000485  0.000108  0.001477
  9H   1py        0.006010 -0.000593 -0.000377 -0.000050  0.000421 -0.002186
 10Na  1s         0.000005  0.000834 -0.016374  0.000072 -0.000028 -0.025636
 10Na  2s        -0.000052 -0.004896  0.095451 -0.000437  0.000174  0.157632
 10Na  3s        -0.000442 -0.005868  0.118051 -0.000707  0.000281 -0.265894
 10Na  4s        -0.000458 -0.003660  0.026474 -0.000537  0.000197  1.163415
 10Na  1pz        0.000142 -0.002999  0.065460 -0.000159  0.000035 -0.071305
 10Na  1px       -0.000280 -0.000773  0.000066  0.058900  0.014451  0.000087
 10Na  1py        0.000641  0.000672  0.000100  0.014373 -0.058875 -0.000133
 10Na  2pz        0.000686  0.005132 -0.072235  0.000465 -0.000015  0.462704
 10Na  2px       -0.000382 -0.001037 -0.000033 -0.130538 -0.032143 -0.000350
 10Na  2py        0.000439  0.001703  0.000263 -0.031786  0.130309  0.001769
 10Na  1dz2      -0.000044 -0.000920  0.016984 -0.000010 -0.000163 -0.014948
 10Na  1dxz       0.000012 -0.000281 -0.000014  0.029739  0.007308 -0.000137
 10Na  1dyz       0.000231 -0.000107 -0.000076  0.007290 -0.029719 -0.000214
 10Na  1dx2y2     0.005491  0.002495  0.000257 -0.000023 -0.000205  0.000374
 10Na  1dxy       0.002413 -0.005260 -0.000226  0.000011 -0.000080  0.000077
                     24        25        26        27        28        29   
                   0.08943   0.08968   0.10679   0.15431   0.15525   0.16475
                   0.00000   0.00000   0.00000   0.00000   0.00000   0.00000
                  --------  --------  --------  --------  --------  --------
  0C   1s        -0.004972 -0.016865 -0.012355  0.000203 -0.000048 -0.024623
  0C   2s         0.005322  0.016343 -0.013593 -0.007046  0.010859  0.034312
  0C   3s         0.072653  0.253493  0.327126  0.090955 -0.147181  0.349155
  0C   1pz        0.023215  0.086074 -0.010436  0.200553 -0.312721  0.060300
  0C   1px        0.005275  0.016385  0.026900 -0.013510 -0.001414  0.008667
  0C   1py       -0.007337 -0.021597 -0.035961 -0.003165 -0.011641 -0.010071
  0C   2pz        0.041468  0.154593  0.022117  0.345265 -0.538862  0.170538
  0C   2px       -0.016761  0.045374  0.035025 -0.048148  0.029413  0.015648
  0C   2py       -0.029945 -0.034105 -0.050770  0.024580 -0.057887 -0.002403
  0C   1dz2      -0.001280 -0.005091  0.000994  0.001921 -0.002881 -0.012492
  0C   1dxz       0.002562 -0.002390 -0.001155  0.021258  0.002521 -0.001535
  0C   1dyz       0.002751  0.001807  0.001523  0.005127  0.017845  0.002526
  0C   1dx2y2    -0.001098  0.000253  0.001266  0.000253  0.000264  0.000184
  0C   1dxy      -0.000118 -0.002127  0.002796  0.000183 -0.000378 -0.001383
  1C   1s         0.014807 -0.009507 -0.010619 -0.000365 -0.000117 -0.025431
  1C   2s        -0.013862  0.009244 -0.017352  0.012600 -0.004354  0.035566
  1C   3s        -0.227432  0.151350  0.309581 -0.159903  0.062724  0.371267
  1C   1pz       -0.075615  0.048884 -0.011264 -0.345769  0.133827  0.057376
  1C   1px        0.013045 -0.007785 -0.024512 -0.002355  0.014840 -0.006509
  1C   1py        0.018529 -0.011605 -0.032367 -0.011653 -0.005129 -0.011051
  1C   2pz       -0.136623  0.087722  0.021312 -0.595103  0.231840  0.166072
  1C   2px        0.011223 -0.035207 -0.027121 -0.041999  0.038774 -0.006951
  1C   2py        0.046348 -0.006372 -0.037190 -0.071591  0.009000 -0.017630
  1C   1dz2       0.004540 -0.002848  0.001012 -0.003125  0.001278 -0.012491
  1C   1dxz       0.000346  0.003449  0.001154  0.001619 -0.021370  0.001619
  1C   1dyz      -0.003027 -0.000737  0.001504  0.016926  0.008385  0.002262
  1C   1dx2y2     0.001136  0.000562  0.000926 -0.000024  0.000290 -0.000534
  1C   1dxy      -0.001601  0.001338 -0.003150  0.000397 -0.000047  0.001255
  2C   1s         0.013356  0.011039 -0.011365  0.000767  0.000205 -0.025209
  2C   2s        -0.012173 -0.009721 -0.015842 -0.013686 -0.003701  0.035013
  2C   3s        -0.207402 -0.175275  0.314637  0.159047  0.043481  0.365957
  2C   1pz       -0.068958 -0.057385 -0.011854  0.358526  0.093860  0.060783
  2C   1px        0.020113  0.016876 -0.037643  0.009366  0.007185 -0.012643
  2C   1py       -0.006880 -0.005204  0.011588 -0.007250  0.013394  0.004384
  2C   2pz       -0.124856 -0.104042  0.020264  0.616898  0.161817  0.172614
  2C   2px        0.033024  0.039090 -0.044395  0.078006  0.028216 -0.019620
  2C   2py       -0.033397  0.014347  0.013580 -0.032745  0.016971  0.006958
  2C   1dz2       0.004168  0.003428  0.001012  0.003376  0.000872 -0.012477
  2C   1dxz      -0.001209 -0.002499  0.001786 -0.012735 -0.010939  0.002435
  2C   1dyz       0.002946 -0.002265 -0.000579  0.010384 -0.020622 -0.000781
  2C   1dx2y2    -0.000885 -0.001605 -0.002544 -0.000434  0.000104  0.001137
  2C   1dxy       0.001619 -0.000001  0.001931  0.000226  0.000241 -0.000885
  3C   1s        -0.006536  0.016157 -0.011189 -0.000275 -0.000605 -0.025188
  3C   2s         0.006268 -0.014514 -0.016031  0.008748  0.010826  0.034751
  3C   3s         0.100282 -0.249661  0.308508 -0.107298 -0.122196  0.371185
  3C   1pz        0.032539 -0.082762 -0.011812 -0.235866 -0.286556  0.057359
  3C   1px        0.000188  0.000735  0.000697  0.011502 -0.009275  0.001186
  3C   1py        0.009656 -0.025935  0.039193  0.007028  0.008916  0.013299
  3C   2pz        0.058934 -0.150536  0.020528 -0.406523 -0.494098  0.166494
  3C   2px       -0.030251 -0.010887  0.000726  0.019385 -0.014488  0.004196
  3C   2py        0.019202 -0.051995  0.047237  0.054658  0.066000  0.016666
  3C   1dz2      -0.001930  0.004987  0.001070 -0.002075 -0.002678 -0.012540
  3C   1dxz       0.003479  0.001425 -0.000012 -0.018349  0.015116 -0.000071
  3C   1dyz      -0.000967  0.002504 -0.001846 -0.009970 -0.012227 -0.002705
  3C   1dx2y2    -0.000711  0.002048  0.003225 -0.000285 -0.000330 -0.001269
  3C   1dxy      -0.001096 -0.000384  0.000094 -0.000262  0.000195  0.000045
  4C   1s        -0.017150 -0.000286 -0.010417  0.000040  0.000907 -0.024352
  4C   2s         0.015467 -0.000211 -0.018028 -0.000680 -0.014542  0.033140
  4C   3s         0.266400  0.004332  0.313873  0.009767  0.156731  0.347162
  4C   1pz        0.088721  0.005377 -0.012062  0.020443  0.370720  0.059867
  4C   1px        0.026097  0.001440  0.038504 -0.005343 -0.010317  0.012964
  4C   1py        0.009265  0.002450  0.013687  0.013937 -0.003678  0.006108
  4C   2pz        0.160821  0.009009  0.019981  0.035712  0.639014  0.170039
  4C   2px        0.053234 -0.005911  0.042888 -0.012113 -0.077709  0.024637
  4C   2py        0.016118  0.035468  0.015128  0.022458 -0.026971  0.009164
  4C   1dz2      -0.005328 -0.000302  0.000926  0.000266  0.003410 -0.012482
  4C   1dxz      -0.002588  0.001023 -0.001784  0.008221  0.014626 -0.002456
[...]
  0-1A  ->  9-1A    6.363666   51326.4   194.8   -0.08845  -0.03215  -0.01782  -0.00022
  0-1A  -> 10-1A    6.372015   51393.8   194.6   -0.04230   0.01547  -0.02765  -0.00042
  0-1A  -> 11-1A    7.279576   58713.7   170.3   -1.98254  -0.40572  -0.13393   0.00085
  0-1A  -> 12-1A    7.285909   58764.8   170.2    1.42027  -0.13513   0.40484   0.00169
  0-1A  -> 13-1A    7.690928   62031.5   161.2   -2.37305   0.07579   0.08350   0.00326
  0-1A  -> 14-1A    7.695067   62064.9   161.1    6.20328   0.07763  -0.08338   0.00626
  0-1A  -> 15-1A    7.793389   62857.9   159.1    0.34526   0.01529   0.01510   0.00144
  0-1A  -> 16-1A    7.822110   63089.6   158.5   -0.28489  -0.00166   0.00035   0.00096
  0-1A  -> 17-1A    7.970746   64288.4   155.5   -0.01305  -0.00537  -0.00252  -0.00209
  0-1A  -> 18-1A    8.657093   69824.2   143.2    0.11352   0.02780   0.04425   0.00042
  0-1A  -> 19-1A    8.714558   70287.7   142.3    2.05287   0.08819   0.03949  -0.00641
  0-1A  -> 20-1A    8.747678   70554.8   141.7    0.00915  -0.03529   0.02334   0.00005
  0-1A  -> 21-1A    8.904038   71815.9   139.2   -0.48225  -0.10745  -0.02230   0.00663
  0-1A  -> 22-1A    8.969235   72341.8   138.2   -1.54883  -0.06253   0.09959   0.00283
  0-1A  -> 23-1A    9.047891   72976.2   137.0   -1.84823   0.26862   0.13991  -0.04919
  0-1A  -> 24-1A    9.070390   73157.6   136.7    3.63387   0.06447  -0.06661   0.01424
  0-1A  -> 25-1A    9.098457   73384.0   136.3    0.08473  -0.01944  -0.01034  -0.00313
  0-1A  -> 26-1A    9.244483   74561.8   134.1   -2.75870   0.03612   0.06390  -0.00492
  0-1A  -> 27-1A    9.347009   75388.7   132.6    5.29839  -1.06921   0.15077  -0.01590
  0-1A  -> 28-1A    9.408928   75888.1   131.8    8.64364  -0.15736  -0.25135   0.01538
  0-1A  -> 29-1A    9.421972   75993.3   131.6  -27.52370   0.13818  -0.49580  -0.01490
  0-1A  -> 30-1A    9.471458   76392.5   130.9   17.02752  -0.17558  -0.90551  -0.01020
  0-1A  -> 31-1A    9.476388   76432.2   130.8    0.69519   0.08411   0.07898  -0.00018
  0-1A  -> 32-1A    9.501556   76635.2   130.5   -4.40109  -0.00893  -0.27575   0.00151
  0-1A  -> 33-1A    9.951123   80261.2   124.6   -0.94046  -0.02831   0.08078  -0.00903
  0-1A  -> 34-1A    9.963402   80360.3   124.4    0.79637  -0.07611   0.00269  -0.01910
  0-1A  -> 35-1A    9.999733   80653.3   124.0    0.70588   0.04511  -0.18379  -0.00236
  0-1A  -> 36-1A   10.008381   80723.0   123.9    0.20139   0.17766   0.06556   0.00248
  0-1A  -> 37-1A   10.068262   81206.0   123.1   -0.65635   0.08938  -0.14961   0.00079
  0-1A  -> 38-1A   10.153707   81895.2   122.1    0.47339   0.02471   0.02908  -0.00918
  0-1A  -> 39-1A   10.165398   81989.5   122.0    0.11450  -0.04158   0.02088   0.00940
  0-1A  -> 40-1A   10.307213   83133.3   120.3   -0.33443  -0.00701  -0.01062   0.04738
  0-1A  -> 41-1A   10.360477   83562.9   119.7    0.13263   0.03824   0.00112  -0.01075
  0-1A  -> 42-1A   10.372918   83663.2   119.5    0.10779  -0.00701   0.03776   0.00328
  0-1A  -> 43-1A   10.474213   84480.2   118.4   -0.90373   0.05681  -0.04104  -0.00938
  0-1A  -> 44-1A   10.480269   84529.1   118.3   -0.33619   0.04112   0.03458  -0.00608
  0-1A  -> 45-1A   10.486428   84578.8   118.2    0.42830   0.01956   0.05432   0.00328
  0-1A  -> 46-1A   10.525311   84892.4   117.8    0.02005  -0.01856   0.00655  -0.00782
  0-1A  -> 47-1A   10.592899   85437.5   117.0    0.23945  -0.02503   0.01235  -0.00018
  0-1A  -> 48-1A   10.655610   85943.3   116.4   -0.24771  -0.01803  -0.01517  -0.01065
  0-1A  -> 49-1A   10.746646   86677.6   115.4    0.56990  -0.00455  -0.00974  -0.00683
  0-1A  -> 50-1A   10.765324   86828.2   115.2   -0.54935   0.00052  -0.03110  -0.01777

------------------------------------------------------------------------------------------
                     CD SPECTRUM VIA TRANSITION VELOCITY DIPOLE MOMENTS    
------------------------------------------------------------------------------------------
     Transition      Energy     Energy  Wavelength    R        MX        MY        MZ   
                      (eV)      (cm-1)    (nm)   (1e40*cgs)   (au)      (au)      (au)  
------------------------------------------------------------------------------------------
  0-1A  ->  1-1A    3.390445   27345.8   365.7    0.69522  -0.35217  -0.08390  -0.00081
  0-1A  ->  2-1A    3.397635   27403.8   364.9   -0.25514   0.08341  -0.35126  -0.00032
  0-1A  ->  3-1A    5.528459   44590.0   224.3   -0.00079   0.00088   0.00124  -0.00126
  0-1A  ->  4-1A    5.529862   44601.4   224.2   -0.00126   0.00023  -0.00004  -0.00226
  0-1A  ->  5-1A    5.649107   45563.1   219.5    0.08669   0.00063   0.00095  -0.04698
  0-1A  ->  6-1A    5.918127   47732.9   209.5   -1.37672  -0.00025  -0.00180   0.00251
  0-1A  ->  7-1A    6.224351   50202.8   199.2    0.00814   0.00148  -0.00132   0.00160
  0-1A  ->  8-1A    6.230906   50255.7   199.0    0.00141  -0.00064  -0.00163   0.00044
  0-1A  ->  9-1A    6.363666   51326.4   194.8   -0.07798  -0.03215  -0.01782  -0.00022
  0-1A  -> 10-1A    6.372015   51393.8   194.6   -0.05714   0.01547  -0.02765  -0.00042
  0-1A  -> 11-1A    7.279576   58713.7   170.3   -0.60582  -0.40572  -0.13393   0.00085
  0-1A  -> 12-1A    7.285909   58764.8   170.2    0.11514  -0.13513   0.40484   0.00169
  0-1A  -> 13-1A    7.690928   62031.5   161.2   -0.13818   0.07579   0.08350   0.00326
  0-1A  -> 14-1A    7.695067   62064.9   161.1    1.10868   0.07763  -0.08338   0.00626
  0-1A  -> 15-1A    7.793389   62857.9   159.1    0.07050   0.01529   0.01510   0.00144
  0-1A  -> 16-1A    7.822110   63089.6   158.5   -0.21775  -0.00166   0.00035   0.00096
  0-1A  -> 17-1A    7.970746   64288.4   155.5   -0.00337  -0.00537  -0.00252  -0.00209
  0-1A  -> 18-1A    8.657093   69824.2   143.2    0.06963   0.02780   0.04425   0.00042
  0-1A  -> 19-1A    8.714558   70287.7   142.3    1.64102   0.08819   0.03949  -0.00641
  0-1A  -> 20-1A    8.747678   70554.8   141.7   -0.05038  -0.03529   0.02334   0.00005
  0-1A  -> 21-1A    8.904038   71815.9   139.2   -0.76845  -0.10745  -0.02230   0.00663
  0-1A  -> 22-1A    8.969235   72341.8   138.2   -0.62133  -0.06253   0.09959   0.00283
  0-1A  -> 23-1A    9.047891   72976.2   137.0   -0.48699   0.26862   0.13991  -0.04919
  0-1A  -> 24-1A    9.070390   73157.6   136.7    1.82550   0.06447  -0.06661   0.01424
  0-1A  -> 25-1A    9.098457   73384.0   136.3    0.05200  -0.01944  -0.01034  -0.00313
  0-1A  -> 26-1A    9.244483   74561.8   134.1   -2.43906   0.03612   0.06390  -0.00492
  0-1A  -> 27-1A    9.347009   75388.7   132.6    4.75160  -1.06921   0.15077  -0.01590
  0-1A  -> 28-1A    9.408928   75888.1   131.8    7.79101  -0.15736  -0.25135   0.01538
  0-1A  -> 29-1A    9.421972   75993.3   131.6  -21.88341   0.13818  -0.49580  -0.01490
  0-1A  -> 30-1A    9.471458   76392.5   130.9   16.02388  -0.17558  -0.90551  -0.01020
  0-1A  -> 31-1A    9.476388   76432.2   130.8    0.69263   0.08411   0.07898  -0.00018
  0-1A  -> 32-1A    9.501556   76635.2   130.5   -5.44204  -0.00893  -0.27575   0.00151
  0-1A  -> 33-1A    9.951123   80261.2   124.6   -0.69747  -0.02831   0.08078  -0.00903
  0-1A  -> 34-1A    9.963402   80360.3   124.4    0.88879  -0.07611   0.00269  -0.01910
  0-1A  -> 35-1A    9.999733   80653.3   124.0   -1.62947   0.04511  -0.18379  -0.00236
  0-1A  -> 36-1A   10.008381   80723.0   123.9    0.01383   0.17766   0.06556   0.00248
  0-1A  -> 37-1A   10.068262   81206.0   123.1    1.03810   0.08938  -0.14961   0.00079
  0-1A  -> 38-1A   10.153707   81895.2   122.1   -0.06632   0.02471   0.02908  -0.00918
  0-1A  -> 39-1A   10.165398   81989.5   122.0    0.10555  -0.04158   0.02088   0.00940
  0-1A  -> 40-1A   10.307213   83133.3   120.3   -0.14267  -0.00701  -0.01062   0.04738
  0-1A  -> 41-1A   10.360477   83562.9   119.7    0.06305   0.03824   0.00112  -0.01075
  0-1A  -> 42-1A   10.372918   83663.2   119.5    0.19400  -0.00701   0.03776   0.00328
  0-1A  -> 43-1A   10.474213   84480.2   118.4   -1.10679   0.05681  -0.04104  -0.00938
  0-1A  -> 44-1A   10.480269   84529.1   118.3    0.02766   0.04112   0.03458  -0.00608
  0-1A  -> 45-1A   10.486428   84578.8   118.2    0.29763   0.01956   0.05432   0.00328
  0-1A  -> 46-1A   10.525311   84892.4   117.8    0.06643  -0.01856   0.00655  -0.00782
  0-1A  -> 47-1A   10.592899   85437.5   117.0    0.16783  -0.02503   0.01235  -0.00018
  0-1A  -> 48-1A   10.655610   85943.3   116.4    0.07805  -0.01803  -0.01517  -0.01065
  0-1A  -> 49-1A   10.746646   86677.6   115.4    0.07590  -0.00455  -0.00974  -0.00683
  0-1A  -> 50-1A   10.765324   86828.2   115.2   -0.33145   0.00052  -0.03110  -0.01777

Total run time:       17.302 sec

           *** ORCA-CIS/TD-DFT FINISHED WITHOUT ERROR ***
-----------------------
CIS/TD-DFT TOTAL ENERGY
-----------------------

    E(SCF)  =   -355.674246084 Eh
    DE(CIS) =      0.124596581 Eh (Root  1)
    ----------------------------- ---------
    E(tot)  =   -355.549649503 Eh


Maximum memory used throughout the entire CIS-calculation: 137.3 MB
=> NOW LEAVING ORCA_CIS


-------------------------------------------------------------------------------
                          DFT DISPERSION CORRECTION                            
                                                                               
                                DFTD4 V3.4.0                                   
-------------------------------------------------------------------------------
The WB97X-D3BJ functional is recognized
Active option DFTDOPT                   ...         5   

-------------------------   ----------------
Dispersion correction           -0.021526451
-------------------------   ----------------


-------------------------   --------------------
FINAL SINGLE POINT ENERGY      -355.571175953359
-------------------------   --------------------


------------------------------------------------------------------------------
                              ORCA PROPERTY CALCULATIONS
------------------------------------------------------------------------------

GBWName                                 ... test1.gbw
Number of atoms                         ...     11
Number of basis functions               ...    110
Max core memory                         ...   4096 MB

Electric properties:
Dipole moment                           ... YES
Quadrupole moment                       ...  NO
Static polarizability (Dipole/Dipole)   ...  NO
Static polarizability (Dipole/Quad.)    ...  NO
Static polarizability (Quad./Quad.)     ...  NO
Static polarizability (Velocity)        ...  NO
Static hyperpolarizability              ...  NO

Atomic electric properties:
Dipole moment                           ...  NO
Quadrupole moment                       ...  NO
Static polarizability                   ...  NO

Choice of electric origin               ... Center of mass
Position of electric origin             ...    -1.414867     1.950933     1.134133

General magnetic properties:
Magnetizability                         ...  NO

EPR properties:
g-Tensor (aka g-matrix)                 ...  NO
Zero-Field splitting spin-orbit         ...  NO
Zero-field splitting spin-spin          ...  NO
Hyperfine couplings                     ...  NO (   0 nuclei)
Quadrupole couplings                    ...  NO (   0 nuclei)
Contact density                         ...  NO (   0 nuclei)

NMR properties:
Chemical shifts                         ...  NO (   0 nuclei)
Spin-rotation constants                 ...  NO (   0 nuclei)
Spin-spin couplings                     ...  NO (   0 nuclei,    0 pairs)

Choice of magnetic origin               ... GIAO
Position of magnetic origin             ...     0.000000     0.000000     0.000000

Properties with geometric perturbations:
SCF Hessian                             ...  NO
IR spectrum                             ...  NO
VCD spectrum                            ...  NO
X-ray spectroscopy properties:
SCF XES/XAS/RIXS spectra                ...  NO

SCF SOC stabilization energy            ...  NO
Diagonal Born-Oppenheimer correction    ...  NO

-------------
DIPOLE MOMENT
-------------

Method             : SCF
Type of density    : Electron Density
Multiplicity       :   1
Irrep              :   0
Energy             :  -355.6742460835128554 Eh
Basis              : AO
                                X                 Y                 Z
Electronic contribution:     -0.096965083       0.007258872       7.235462131
Nuclear contribution   :      0.100433231       0.008067802      -4.372703240
                        -----------------------------------------
Total Dipole Moment    :      0.003468148       0.015326674       2.862758891
                        -----------------------------------------
Magnitude (a.u.)       :      2.862802020
Magnitude (Debye)      :      7.276664448



--------------------
Rotational spectrum 
--------------------
 
Rotational constants in cm-1:             0.135767             0.111117             0.110735 
Rotational constants in MHz :          4070.204736          3331.189763          3319.741232 

Dipole components along the rotational axes: 
x,y,z [a.u.] :     2.862729     0.003961     0.020021 
x,y,z [Debye]:     7.276480     0.010067     0.050888 

 

Dipole moment calculation done in   0.0 sec 

Maximum memory used throughout the entire PROP-calculation: 6.6 MB

--------------------------------
SUGGESTED CITATIONS FOR THIS RUN
--------------------------------

Below you find a list of papers that are relevant to this ORCA run
We neither can nor want to force you to cite these papers, but we appreciate if you do
You receive ORCA, which is the product of decades of hard work by many enthusiastic individuals, for free
The only thing we kindly ask in return is that you cite our papers,
We deeply appreciate it, if you show your appreciation for ORCA by not just citing the generic ORCA reference.

Please note that relegating all ORCA citations to the supporting information does *not* help us.
SI sections are not indexed - citations you put there will not count into any citation statistics
But we need these citations in order to attract the funding resources that allow us to do what we are doing

Therefore, if you are a happy ORCA user, please consider citing a few of the papers listed below in the main body of your paper

In addition to the list printed below, the program has created the file test1.bibtex that contains the list in bibtex format
You can import this file easily into all common literature databanks and citation aid programs

It goes without saying that in many instances, there are alternative algorithms to achieve similar
results as the ones you have gotten from ORCA. It is, of course, also the case that in some instances
ORCA just re-implements algorithms worked out by others. We are fully aware of that and we are also
fully appreciative of our colleagues work. Hence this citation list should not be read as indicating
that the listed papers, which are focused on our own work, are the only ones worth citing. It simply
meant to make it easier for users to cite ORCA specific papers. It is not a substitute for doing your
own literature research and citing the relevant literature in a scientifically appropriate manner.

List of essential papers. We consider these as the minimum necessary citations

  1. Neese, F.
     Software update: the ORCA program system, version 6.0
     WIRES Comput. Molec. Sci. 2025 15(1), e70019
     doi.org/10.1002/wcms.70019

List of papers to cite with high priority. The work reported in these papers was absolutely
necessary for this run to complete.
Our perspective: the developers of density functionals and basis sets usually get cited in chemistry papers
Good! But without the algorithms to do something with them, the functionals or basis sets would not do anything.
Hence, in our opinion, the algorithm design and method developments papers are equally worthy of getting cited

  1. Neese, F.; Olbrich, G.
     Efficient use of the resolution of the identity approximation in time-dependent density functional calculations with hybrid density functionals
     Chem. Phys. Lett. 2002 362 , 170-178
     doi.org/10.1016/s0009-2614(02)01053-9
  2. Neese, F.
     An improvement of the resolution of the identity approximation for the formation of the Coulomb matrix
     J. Comp. Chem. 2003 24(14), 1740-1747
     doi.org/10.1002/jcc.10318
  3. Neese, F.; Wennmohs, F.; Hansen, A.; Becker, U.
     Efficient, approximate and parallel Hartree-Fock and hybrid DFT calculations. A 'chain-of-spheres' algorithm for the Hartree-Fock exchange
     Chem. Phys. 2009 356(1-3), 98-109
     doi.org/10.1016/j.chemphys.2008.10.036
  4. Caldeweyher, E.; Bannwarth, C.; Grimme, S.
     Extension of the D3 dispersion coefficient model
     J. Chem. Phys. 2017 147 , 034112
     doi.org/10.1063/1.4993215
  5. Caldeweyher, E.; Ehlert, S.; Hansen, A.; Neugebauer, H.; Spicher, S.; Bannwarth, C.; Grimme, S.
     A generally applicable atomic-charge dependent London dispersion correction
     J. Chem. Phys. 2019 150 , 154122
     doi.org/10.1063/1.5090222
  6. Caldeweyher, E.; Mewes, J.; Ehlert, S.; Grimme, S.
     Extension and evaluation of the D4 London-dispersion model for periodic systems
     Phys. Chem. Chem. Phys. 2020 22(16), 8499-8512
     doi.org/10.1039/D0CP00502A
  7. Helmich-Paris, B.; de Souza, B.; Neese, F.; Izsák, R.
     An improved chain of spheres for exchange algorithm
     J. Chem. Phys. 2021 155(10), 104109
     doi.org/10.1063/5.0058766
  8. Neese, F.
     The SHARK Integral Generation and Digestion System
     J. Comp. Chem. 2022 44(3), 381
     doi.org/10.1002/jcc.26942

List of suggested additional citations. These are papers that are important in the 'surrounding' of 
of this run, or papers that preceded the highly important papers. If you like your results we are grateful for a citation.

  1. Izsak, R.; Neese, F.
     An overlap fitted chain of spheres exchange method
     J. Chem. Phys. 2011 135 , 144105
     doi.org/10.1063/1.3646921
  2. Izsak, R.; Hansen, A.; Neese, F.
     The resolution of identity and chain of spheres approximations for the LPNO-CCSD singles Fock term
     Molec. Phys. 2012 110 , 2413-2417
     doi.org/10.1080/00268976.2012.687466
  3. Neese, F.
     The ORCA program system
     WIRES Comput. Molec. Sci. 2012 2(1), 73-78
     doi.org/10.1002/wcms.81
  4. Izsak, R.; Neese, F.; Klopper, W.
     Robust fitting techniques in the chain of spheres approximation to the Fock exchange: The role of the complementary space
     J. Chem. Phys. 2013 139 , 
     doi.org/10.1063/1.4819264
  5. Neese, F.
     Software update: the ORCA program system, version 4.0
     WIRES Comput. Molec. Sci. 2018 8(1), 1-6
     doi.org/10.1002/wcms.1327
  6. Neese, F.; Wennmohs, F.; Becker, U.; Riplinger, C.
     The ORCA quantum chemistry program package
     J. Chem. Phys. 2020 152(22), 224108
     doi.org/10.1063/5.0004608
  7. Neese, F.
     Software update: The ORCA program system—Version 5.0
     WIRES Comput. Molec. Sci. 2022 12(1), e1606
     doi.org/10.1002/wcms.1606

List of optional additional citations

  1. Neese, F.
     Approximate second-order SCF convergence for spin unrestricted wavefunctions
     Chem. Phys. Lett. 2000 325(1-3), 93-98
     doi.org/10.1016/s0009-2614(00)00662-x

Timings for individual modules:

Sum of individual times          ...       26.871 sec (=   0.448 min)
Startup calculation              ...        0.730 sec (=   0.012 min)   2.7 %
SCF iterations                   ...        8.719 sec (=   0.145 min)  32.4 %
Property integrals               ...        0.051 sec (=   0.001 min)   0.2 %
Property calculations            ...        0.051 sec (=   0.001 min)   0.2 %
CIS module                       ...       17.320 sec (=   0.289 min)  64.5 %
                             ****ORCA TERMINATED NORMALLY****
TOTAL RUN TIME: 0 days 0 hours 0 minutes 27 seconds 15 msec
