
                                 *****************
                                 * O   R   C   A *
                                 *****************

                                            #,                                       
                                            ###                                      
                                            ####                                     
                                            #####                                    
                                            ######                                   
                                           ########,                                 
                                     ,,################,,,,,                         
                               ,,#################################,,                 
                          ,,##########################################,,             
                       ,#########################################, ''#####,          
                    ,#############################################,,   '####,        
                  ,##################################################,,,,####,       
                ,###########''''           ''''###############################       
              ,#####''   ,,,,##########,,,,          '''####'''          '####       
            ,##' ,,,,###########################,,,                        '##       
           ' ,,###''''                  '''############,,,                           
         ,,##''                                '''############,,,,        ,,,,,,###''
      ,#''                                            '''#######################'''  
     '                                                          ''''####''''         
             ,#######,   #######,   ,#######,      ##                                
            ,#'     '#,  ##    ##  ,#'     '#,    #''#        ,####,    ,#,          
            ##       ##  ##   ,#'  ##            #'  '#       #'       ,# #          
            ##       ##  #######   ##           ,######,      #####,      #          
            '#,     ,#'  ##    ##  '#,     ,#' ,#      #,     #,   #      #          
             '#######'   ##     ##  '#######'  #'      '#     '####' #    #          



                #########################################################
                #                        -***-                          #
                #          Department of theory and spectroscopy        #
                #                                                       #
                #                      Frank Neese                      #
                #                                                       #
                #     Directorship, Architecture, Infrastructure        #
                #                    SHARK, DRIVERS                     #
                #        Core code/Algorithms in most modules           #
                #                                                       #
                #        Max Planck Institute fuer Kohlenforschung      #
                #                Kaiser Wilhelm Platz 1                 #
                #                 D-45470 Muelheim/Ruhr                 #
                #                      Germany                          #
                #                                                       #
                #                  All rights reserved                  #
                #                        -***-                          #
                #########################################################


                         Program Version 6.1.1  -  RELEASE   -
                                (GIT: $487d211c$)
                          ($2025-11-21 10:33:24 +0100$)


 With contributions from (in alphabetic order):
[Max-Planck-Institut fuer Kohlenforschung]                               
  Daniel Aravena         : Magnetic Suceptibility                        
  Michael Atanasov       : Ab Initio Ligand Field Theory (pilot matlab implementation)
  Alexander A. Auer      : GIAO ZORA, VPT2 properties, NMR spectrum      
  Ute Becker             : All parallelization in ORCA, NUMFREQ, NUMCALC 
  Giovanni Bistoni       : ED, misc. LED, open-shell LED, HFLD           
  Dmytro Bykov           : pre 5.0 version of the SCF Hessian            
  Marcos Casanova-Páez   : Triplet and SCS-CIS(D). UHF-(DLPNO)-IP/EA/STEOM-CCSD. UHF-CVS-IP/STEOM-CCSD   
  Vijay G. Chilkuri      : MRCI spin determinant printing, contributions to CSF-ICE 
  Pauline Colinet        : FMM embedding                                 
  Dipayan Datta          : RHF DLPNO-CCSD density                        
  Achintya Kumar Dutta   : EOM-CC, STEOM-CC                              
  Nicolas Foglia         : Exact transition moments, OPA infrastructure, MCD improvements    
  Dmitry Ganyushin       : Spin-Orbit,Spin-Spin,Magnetic field MRCI      
  Miquel Garcia-Rates    : C-PCM and meta-GGA Hessian, CCSD/C-PCM, Gaussian charge scheme 
  Tiago L. C. Gouveia    : GS-ROHF, GS-ROCIS                             
  Yang Guo               : DLPNO-NEVPT2, F12-NEVPT2, CIM, IAO-localization        
  Andreas Hansen         : Spin unrestricted coupled pair/coupled cluster methods 
  Ingolf Harden          : AUTO-CI MPn and infrastructure                
  Benjamin Helmich-Paris : MC-RPA, TRAH-(SCF,CASSCF), AVAS, COSX integrals, SCF dyn. polar., MC-PDFT, srDFT 
  Lee Huntington         : MR-EOM, pCC                                   
  Robert Izsak           : Overlap fitted RIJCOSX, COSX-SCS-MP3, EOM     
  Riya Kayal             : Wick's Theorem for AUTO-CI, AUTO-CI UHF-CCSDT 
  Emily Kempfer          : AUTO-CI RHF CISDT and CCSDT, approximate NEVPT4
  Christian Kollmar      : KDIIS, OOCD, Brueckner-CCSD(T), CCSD density, CASPT2, CASPT2-K, improved NEVPT2 
  Axel Koslowski         : Symmetry handling                             
  Simone Kossmann        : meta-GGA functionals, TD-DFT gradient, OOMP2, (MP2 Hessian; deprecated post 5.0) 
  Lucas Lang             : DCDCAS, Hyperfine gauge corrections, ICE-SOC+SSC
  Marvin Lechner         : AUTO-CI (C++ implementation), FIC-MRCC        
  Spencer Leger          : CASSCF response                               
  Dagmar Lenk            : GEPOL surface, SMD, ORCA-2-JSON               
  Dimitrios Liakos       : Extrapolation schemes; Compound Job, Property file
  Dimitrios Manganas     : Further ROCIS development; embedding schemes. LFT, Crystal Embedding 
  Dimitrios Pantazis     : SARC Basis sets                               
  Anastasios Papadopoulos: AUTO-CI, single reference methods and gradients 
  Taras Petrenko         : pre 6.0 DFT Hessian and TD-DFT gradient,  ECA, NRVS 
  Petra Pikulova         : Analytic Raman intensities                    
  Peter Pinski           : DLPNO-MP2, DLPNO-MP2 Gradient                 
  Shashank Vittal Rao    : ES-AILFT, MagRelax                            
  Christoph Reimann      : Effective Core Potentials                     
  Marius Retegan         : Local ZFS, SOC                                
  Christoph Riplinger    : Optimizer, TS searches, QM/MM, DLPNO-CCSD(T), (RO)-DLPNO pert. Triples 
  Michael Roemelt        : Original ROCIS implementation, recursive CI coupling coefficients
  Masaaki Saitow         : Open-shell DLPNO-CCSD energy and density      
  Barbara Sandhoefer     : DKH picture change effects                    
  Yorick L. A. Schmerwitz: GMF and freeze-and-release deltaSCF, NEB S-IDPP initial path                    
  Kantharuban Sivalingam : CASSCF convergence/infrastructure, NEVPT2, NEVPT3, NEVPT4(SD), FIC-MRCI and CEPA variants
  Bernardo de Souza      : ESD, SOC TD-DFT                               
  Georgi L. Stoychev     : AutoAux, RI-MP2 NMR, DLPNO-MP2 response, X2C  
  Van Anh Tran           : RI-MP2 g-tensors                              
  Willem Van den Heuvel  : Paramagnetic NMR                              
  Zikuan Wang            : NOTCH, Electric field optimization            
  Frank Wennmohs         : Technical directorship and infrastructure     
  Hang Xu                : AUTO-CI-Response properties                   
                                                                         
[FACCTs GmbH]                                                            
  Markus Bursch, Nicolas Foglia, Miquel Garcia-Rates, Ingolf Harden, Hagen Neugebauer, Anastasios Papadopoulos, 
  Christoph Riplinger, Bernardo de Souza, Georgi L. Stoychev                                                    
                                                                 
  APM, various basis sets, CI-OPT, improved COSX, DLPNO-Multilevel,           
  DOCKER, DRACO, updates on ESD, Fragmentator, GOAT, IRC, LR-CPCM, L-BFGS, MBIS, meta-GGA TD-DFT gradient, ML-optimized integration grids, 
  MM, NACMEs, nearIR, NEB, NEB-TS, NL-DFT gradient (VV10), 2- and 3-layer-ONIOM, interface openCOSMO-RS, QMMM,   
  Crystal-QMMM, RESP, rigid body optimization, SF, symmetry and pop. for TD-DFT, various functionals, SOLVATOR                                   
                                                                         
[Other institutions]                                                     
  V. Asgeirsson          : NEB                                           
  Christoph Bannwarth    : sTDA-DFT, sTD-DFT, PBEh-3c, B97-3c, D3        
  Giovanni Bistoni       : ETS/NOCV, ADLD/ADEX, COVALED                  
  Martin Brehm           : Molecular dynamics                            
  Ronald Cardenas        : ETS/NOCV                                      
  Martina Colucci        : COVALED                                       
  Sebastian Ehlert       : rSCAN, r2SCAN, r2SCAN-3c, D4, dhf basis sets  
  Marvin Friede          : D4 for Fr, Ra, Ac-Lr                          
  Lars Goerigk           : TD-DFT with DH, B97 family of functionals     
  Stefan Grimme          : VdW corrections, initial TS optimization, DFT functionals, gCP, sTDA/sTD-DF 
  Waldemar Hujo          : DFT-NL                                        
  H. Jonsson             : NEB                                           
  Holger Kruse           : gCP                                           
  Marcel Mueller         : wB97X-3c, vDZP basis set                      
  Hagen Neugebauer       : wr2SCAN, Native XTB                           
  Gianluca Regni         : ADLD/ADEX                                     
  Tobias Risthaus        : pre 6.0 range-separated hybrid DFT and stability analysis
  Lukas Wittmann         : regularized MP2, r2SCAN double-hybrids, wr2SCAN        
                                                                         
We gratefully acknowledge several colleagues who have allowed us to      
interface, adapt or use parts of their codes:                            
  Ed Valeev, F. Pavosevic, A. Kumar             : LibInt (2-el integral package), F12 methods 
  Garnet Chan, S. Sharma, J. Yang, R. Olivares  : DMRG                   
  Ulf Ekstrom                                   : XCFun DFT Library      
  Mihaly Kallay                                 : mrcc  (arbitrary order and MRCC methods)
  Frank Weinhold                                : gennbo (NPA and NBO analysis)           
  Simon Mueller                                 : openCOSMO-RS                            
  Christopher J. Cramer and Donald G. Truhlar   : smd solvation model                     
  S Lehtola, MJT Oliveira, MAL Marques          : LibXC Library                           
  Liviu Ungur et al                             : ANISO software                          


 Your calculation uses the libint2 library for the computation of 2-el integrals
 For citations please refer to: http://libint.valeyev.net

 Your ORCA version has been built with support for libXC version: 7.0.0
 For citations please refer to: https://libxc.gitlab.io

 This ORCA versions uses:
   CBLAS   interface :  Fast vector & matrix operations
   LAPACKE interface :  Fast linear algebra routines
   SCALAPACK package :  Parallel linear algebra routines
   Shared memory     :  Shared parallel matrices
   BLAS/LAPACK       :  OpenBLAS 0.3.29  USE64BITINT DYNAMIC_ARCH NO_AFFINITY Haswell SINGLE_THREADED
        Core in use  :  Haswell
   Copyright (c) 2011-2014, The OpenBLAS Project


  ***********************************
  * Starting time: Tue Jan 20 18:59:26 2026
  * Host name:     Maks
  * Process ID:    2706
  * Working dir.:  /home/maksy/Chemia_obliczeniowa/Cwiczenia5
  ***********************************

================================================================================

----- Orbital basis set information -----
Your calculation utilizes the basis: def2-TZVP
   F. Weigend and R. Ahlrichs, Phys. Chem. Chem. Phys. 7, 3297 (2005).

================================================================================
                                        WARNINGS
                       Please study these warnings very carefully!
================================================================================


WARNING: The frozen-core approximation for MP2-gradient calculations is turned on by default.

WARNING: Geometry Optimization
  ===> : Switching off AutoStart
         For restart on a previous wavefunction, please use MOREAD

WARNING: Post HF methods need fully converged wavefunctions
  ===> : Setting SCFConvForced true
         You can overwrite this default with %scf ConvForced false 


================================================================================
                                       INPUT FILE
================================================================================
NAME = nadtlenek.inp
|  1> ! MP2 def2-TZVP Opt
|  2> * xyz 0 1
|  3>  O         0.000000        0.000000        0.000000
|  4>  O         1.400000        0.000000        0.000000
|  5>  H        -0.325568        0.945519       -0.000000
|  6>  H         1.725568       -0.945519        0.000000
|  7> *
|  8> 
|  9>                          ****END OF INPUT****
================================================================================

                       *****************************
                       * Geometry Optimization Run *
                       *****************************

Geometry optimization settings:
Update method            Update   .... BFGS
Choice of coordinates    CoordSys .... (2022) Redundant Internals
Initial Hessian          InHess   .... Almloef's Model
Max. no of cycles        MaxIter  .... 50

Convergence Tolerances:
Energy Change            TolE     ....  5.0000e-06 Eh
Max. Gradient            TolMAXG  ....  3.0000e-04 Eh/bohr
RMS Gradient             TolRMSG  ....  1.0000e-04 Eh/bohr
Max. Displacement        TolMAXD  ....  4.0000e-03 bohr
RMS Displacement         TolRMSD  ....  2.0000e-03 bohr
Strict Convergence                .... False

------------------------------------------------------------------------------
                        ORCA OPTIMIZATION COORDINATE SETUP
------------------------------------------------------------------------------

The optimization will be done in redundant internal coordinates (2022)
Making redundant internal coordinates   ...  (2022 redundants) done
Evaluating the initial hessian          ...  (Almloef) done
Evaluating the coordinates              ...  done
Calculating the B-matrix                .... done
Calculating the G-matrix                .... done
The number of degrees of freedom        ....    6

    -----------------------------------------------------------------
                    Redundant Internal Coordinates


    -----------------------------------------------------------------
         Definition                    Initial Value    Approx d2E/dq
    -----------------------------------------------------------------
      1. B(O   1,O   0)                  1.4000         0.483123   
      2. B(H   2,O   0)                  1.0000         0.448899   
      3. B(H   3,O   1)                  1.0000         0.448899   
      4. A(O   1,O   0,H   2)          109.0000         0.343836   
      5. A(O   0,O   1,H   3)          109.0000         0.343836   
      6. D(H   3,O   1,O   0,H   2)    180.0000         0.017337   
    -----------------------------------------------------------------

Number of atoms                         .... 4
Number of degrees of freedom            .... 6


         *************************************************************
         *                GEOMETRY OPTIMIZATION CYCLE   1            *
         *************************************************************
---------------------------------
CARTESIAN COORDINATES (ANGSTROEM)
---------------------------------
  O      0.000000    0.000000    0.000000
  O      1.400000    0.000000    0.000000
  H     -0.325568    0.945519   -0.000000
  H      1.725568   -0.945519    0.000000

----------------------------
CARTESIAN COORDINATES (A.U.)
----------------------------
  NO LB      ZA    FRAG     MASS         X           Y           Z
   0 O     8.0000    0    15.999    0.000000    0.000000    0.000000
   1 O     8.0000    0    15.999    2.645617    0.000000    0.000000
   2 H     1.0000    0     1.008   -0.615234    1.786772   -0.000000
   3 H     1.0000    0     1.008    3.260851   -1.786772    0.000000

--------------------------------
INTERNAL COORDINATES (ANGSTROEM)
--------------------------------
 O      0   0   0     0.000000000000     0.00000000     0.00000000
 O      1   0   0     1.400000000000     0.00000000     0.00000000
 H      1   2   0     1.000000350992   108.99998372     0.00000000
 H      2   1   3     1.000000350992   108.99998372   180.00000000

---------------------------
INTERNAL COORDINATES (A.U.)
---------------------------
 O      0   0   0     0.000000000000     0.00000000     0.00000000
 O      1   0   0     2.645616587490     0.00000000     0.00000000
 H      1   2   0     1.889726797201   108.99998372     0.00000000
 H      2   1   3     1.889726797201   108.99998372   180.00000000

---------------------
BASIS SET INFORMATION
---------------------
There are 2 groups of distinct atoms

 Group   1 Type O   : 11s6p2d1f contracted to 5s3p2d1f pattern {62111/411/11/1}
 Group   2 Type H   : 5s1p contracted to 3s1p pattern {311/1}

Atom   0O    basis set group =>   1
Atom   1O    basis set group =>   1
Atom   2H    basis set group =>   2
Atom   3H    basis set group =>   2
------------------------------------------------------------------------------
                             ORCA STARTUP CALCULATIONS
------------------------------------------------------------------------------
------------------------------------------------------------------------------
                   ___                                                        
                  /   \      - P O W E R E D   B Y -                         
                 /     \                                                     
                 |  |  |   _    _      __       _____    __    __             
                 |  |  |  | |  | |    /  \     |  _  \  |  |  /  |          
                  \  \/   | |  | |   /    \    | | | |  |  | /  /          
                 / \  \   | |__| |  /  /\  \   | |_| |  |  |/  /          
                |  |  |   |  __  | /  /__\  \  |    /   |      \           
                |  |  |   | |  | | |   __   |  |    \   |  |\   \          
                \     /   | |  | | |  |  |  |  | |\  \  |  | \   \       
                 \___/    |_|  |_| |__|  |__|  |_| \__\ |__|  \__/        
                                                                              
                      - O R C A' S   B I G   F R I E N D -                    
                                      &                                       
                       - I N T E G R A L  F E E D E R -                       
                                                                              
 v1 FN, 2020, v2 2021, v3 2022-2024                                           
------------------------------------------------------------------------------


----------------------
SHARK INTEGRAL PACKAGE
----------------------

Number of atoms                             ...      4
Number of basis functions                   ...     74
Number of shells                            ...     30
Maximum angular momentum                    ...      3
Integral batch strategy                     ... SHARK/LIBINT Hybrid
RI-J (if used) integral strategy            ... SPLIT-RIJ (Revised 2003 algorithm where possible)
Printlevel                                  ...      1
Contraction scheme used                     ... SEGMENTED contraction
Prescreening option                         ... SCHWARTZ
   Thresh                                   ... 2.500e-11
   Tcut                                     ... 2.500e-12
   Tpresel                                  ... 2.500e-12 
Coulomb Range Separation                    ... NOT USED
Exchange Range Separation                   ... NOT USED
Multipole approximations                    ... NOT USED
Finite Nucleus Model                        ... NOT USED
CABS basis                                  ... NOT available
Auxiliary Coulomb fitting basis             ... NOT available
Auxiliary J/K fitting basis                 ... NOT available
Auxiliary Correlation fitting basis         ... NOT available
Auxiliary 'external' fitting basis          ... NOT available

Checking pre-screening integrals            ... done (  0.0 sec) Dimension = 30
   => SHARK Basis and OBASIS are compatible. Storing Pre-screening
Shell pair information
Shell pair cut-off parameter TPreSel        ...   2.5e-12
Total number of shell pairs                 ...       465
Shell pairs after pre-screening             ...       462
Total number of primitive shell pairs       ...      1428
Primitive shell pairs kept                  ...      1261
          la=0 lb=0:    133 shell pairs
          la=1 lb=0:    128 shell pairs
          la=1 lb=1:     36 shell pairs
          la=2 lb=0:     64 shell pairs
          la=2 lb=1:     32 shell pairs
          la=2 lb=2:     10 shell pairs
          la=3 lb=0:     32 shell pairs
          la=3 lb=1:     16 shell pairs
          la=3 lb=2:      8 shell pairs
          la=3 lb=3:      3 shell pairs

Checking whether 4 symmetric matrices of dimension 74 fit in memory
:Max Core in MB      =   4096.00
 MB in use           =      2.46
 MB left             =   4093.54
 MB needed           =      0.08
 Data fit in memory  = YES
Calculating Nuclear repulsion               ... done (  0.0 sec) ENN=     37.150520667231 Eh

Diagonalization of the overlap matrix:
Smallest eigenvalue                        ... 5.070e-03
Time for diagonalization                   ...    0.003 sec
Threshold for overlap eigenvalues          ... 1.000e-07
Number of eigenvalues below threshold      ... 0
Time for construction of square roots      ...    0.000 sec
Total time needed                          ...    0.004 sec

-------------------
DFT GRID GENERATION
-------------------

General Integration Accuracy     IntAcc      ... 4.388
Radial Grid Type                 RadialGrid  ... OptM3 with GC (2021)
Angular Grid (max. ang.)         AngularGrid ... 4 (Lebedev-302)
Angular grid pruning method      GridPruning ... 4 (adaptive)
Weight generation scheme         WeightScheme... mBecke (2022)
Basis function cutoff            BFCut       ... 1.0000e-11
Integration weight cutoff        WCut        ... 1.0000e-14
Partially contracted basis set               ... off
Rotationally invariant grid construction     ... off
Angular grids for H and He will be reduced by one unit

Total number of grid points                  ...    18864
Total number of batches                      ...      296
Average number of points per batch           ...       63
Average number of grid points per atom       ...     4716
Grids setup in   0.1 sec
Initializing property integral containers    ... done (  0.0 sec)

SHARK setup successfully completed in  -2.1 seconds

Maximum memory used throughout the entire STARTUP-calculation: 12.5 MB
-------------------------------------------------------------------------------
                                 ORCA GUESS
                   Start orbitals & Density for SCF / CASSCF
-------------------------------------------------------------------------------

------------
SCF SETTINGS
------------
Hamiltonian:
 Ab initio Hamiltonian  Method          .... Hartree-Fock(GTOs)


General Settings:
 Integral files         IntName         .... nadtlenek
 Hartree-Fock type      HFTyp           .... RHF
 Total Charge           Charge          ....    0
 Multiplicity           Mult            ....    1
 Number of Electrons    NEL             ....   18
 Basis Dimension        Dim             ....   74
 Nuclear Repulsion      ENuc            ....     37.1505206672 Eh

Convergence Acceleration:
 AO-DIIS                CNVDIIS         .... on
   Start iteration      DIISMaxIt       ....    12
   Startup error        DIISStart       ....  0.200000
   # of expansion vecs  DIISMaxEq       ....     5
   Bias factor          DIISBfac        ....   1.050
   Max. coefficient     DIISMaxC        ....  10.000
 MO-DIIS                CNVKDIIS        .... off
 Trust-Rad. Augm. Hess. CNVTRAH         .... auto
   Auto Start mean grad. ratio tolernc. ....  1.125000
   Auto Start start iteration           ....    50
   Auto Start num. interpolation iter.  ....    10
   Max. Number of Micro iterations      ....    24
   Max. Number of Macro iterations      .... Maxiter - #DIIS iter
   Number of Davidson start vectors     ....     2
   Converg. threshold    (grad. norm)   ....   1.000e-05
   Grad. Scal. Fac. for Micro threshold ....   0.100
   Minimum threshold for Micro iter.    ....   1.000e-02
   NR start threshold (gradient norm)   ....   1.000e-04
   Initial trust radius                 ....   0.400
   Minimum AH scaling param. (alpha)    ....   1.000
   Maximum AH scaling param. (alpha)    .... 1000.000
   Quad. conv. algorithm                .... NR
   White noise on init. David. guess    .... on
   Maximum white noise                  ....   0.010
   Pseudo random numbers                .... off
   Inactive MOs                         .... canonical
   Orbital update algorithm             .... Taylor
   Preconditioner                       .... Diag
   Full preconditioner red. dimension   ....   250
 SOSCF                 CNVSOSCF           .... on
   Start iteration     SOSCFMaxIt         ....   150
   Startup grad/error  SOSCFStart         ....  0.003300
   Hessian update      SOSCFHessUp        .... L-BFGS
   Autom. constraints  SOSCFAutoConstrain .... off
 Level Shifting         CNVShift        .... on
   Level shift para.    LevelShift      ....    0.2500
   Turn off err/grad.   ShiftErr        ....    0.0010
 Zerner damping         CNVZerner       .... off
 Static damping         CNVDamp         .... on
   Fraction old density DampFac         ....    0.7000
   Max. Damping (<1)    DampMax         ....    0.9800
   Min. Damping (>=0)   DampMin         ....    0.0000
   Turn off err/grad.   DampErr         ....    0.1000

SCF Procedure:
 Maximum # iterations   MaxIter         ....   125
 SCF integral mode      SCFMode         .... Direct
   Integral package                     .... SHARK and LIBINT hybrid scheme
 Reset frequency        DirectResetFreq ....    20
 Integral Threshold     Thresh          ....  2.500e-11 Eh
 Primitive CutOff       TCut            ....  2.500e-12 Eh

Convergence Tolerance:
 Convergence Check Mode ConvCheckMode   .... Total+1el-Energy
 Convergence forced     ConvForced      .... 1
 Energy Change          TolE            ....  1.000e-08 Eh
 1-El. energy change                    ....  1.000e-05 Eh
 Orbital Gradient       TolG            ....  1.000e-05
 Orbital Rotation angle TolX            ....  1.000e-05
 DIIS Error             TolErr          ....  5.000e-07

------------------------------
INITIAL GUESS: MODEL POTENTIAL
------------------------------
Loading Hartree-Fock densities                     ... done
Calculating cut-offs                               ... done
Initializing the effective Hamiltonian             ... done
Setting up the integral package (SHARK)            ... done
Starting the Coulomb interaction                   ... done (   0.0 sec)
Making the grid                                    ... done (   0.0 sec)
Mapping shells                                     ... done
Starting the XC term evaluation                    ... done (   0.0 sec)
Transforming the Hamiltonian                       ... done (   0.0 sec)
Diagonalizing the Hamiltonian                      ... done (   0.0 sec)
Back transforming the eigenvectors                 ... done (   0.0 sec)
Now organizing SCF variables                       ... done
                      ------------------
                      INITIAL GUESS DONE (   0.0 sec)
                      ------------------
             **** ENERGY FILE WAS UPDATED (nadtlenek.en.tmp) ****
Finished Guess after   0.1 sec
Maximum memory used throughout the entire GUESS-calculation: 6.8 MB

-------------------------------------------------------------------------------------------
                                      ORCA LEAN-SCF
                              memory conserving SCF solver
-------------------------------------------------------------------------------------------

----------------------------------------D-I-I-S--------------------------------------------
Iteration    Energy (Eh)           Delta-E    RMSDP     MaxDP     DIISErr   Damp  Time(sec)
-------------------------------------------------------------------------------------------
               ***  Starting incremental Fock matrix formation  ***
    1    -150.7588064286585450     0.00e+00  1.65e-03  2.69e-02  2.99e-01  0.700   0.2
    2    -150.7839967621728761    -2.52e-02  1.18e-03  1.92e-02  2.20e-01  0.700   0.1
                               ***Turning on AO-DIIS***
    3    -150.7990806270222492    -1.51e-02  5.85e-04  9.59e-03  1.62e-01  0.700   0.1
    4    -150.8087471984685237    -9.67e-03  4.22e-04  6.91e-03  1.13e-01  0.700   0.1
    5    -150.8154170381686185    -6.67e-03  3.16e-04  5.29e-03  7.91e-02  0.700   0.1
    6    -150.8201016071724609    -4.68e-03  7.89e-04  1.35e-02  5.53e-02  0.000   0.1
                              *** Initializing SOSCF ***
---------------------------------------S-O-S-C-F--------------------------------------
Iteration    Energy (Eh)           Delta-E    RMSDP     MaxDP     MaxGrad    Time(sec)
--------------------------------------------------------------------------------------
    7    -150.8310581693177141    -1.10e-02  5.99e-05  7.17e-04  2.05e-03     0.1
               *** Restarting incremental Fock matrix formation ***
    8    -150.8310695240001564    -1.14e-05  3.73e-05  4.27e-04  4.45e-04     0.1
    9    -150.8310726170782061    -3.09e-06  3.09e-05  4.48e-04  1.87e-04     0.1
   10    -150.8310733374069059    -7.20e-07  3.51e-06  4.30e-05  4.54e-05     0.1
   11    -150.8310733540632214    -1.67e-08  8.96e-07  1.10e-05  1.60e-05     0.1
   12    -150.8310733567450654    -2.68e-09  2.79e-07  2.47e-06  2.60e-06     0.1
                 **** Energy Check signals convergence ****

               *****************************************************
               *                     SUCCESS                       *
               *           SCF CONVERGED AFTER  12 CYCLES          *
               *****************************************************

             **** ENERGY FILE WAS UPDATED (nadtlenek.en.tmp) ****

----------------
TOTAL SCF ENERGY
----------------

Total Energy       :       -150.83107335689053 Eh           -4104.32217 eV

Components:
Nuclear Repulsion  :         37.15052066723069 Eh            1010.91706 eV
Electronic Energy  :       -187.98159402412122 Eh           -5115.23923 eV
One Electron Energy:       -282.15426064654440 Eh           -7677.80776 eV
Two Electron Energy:         94.17266662242318 Eh            2562.56854 eV

Virial components:
Potential Energy   :       -301.38397270340658 Eh           -8201.07483 eV
Kinetic Energy     :        150.55289934651606 Eh            4096.75267 eV
Virial Ratio       :          2.00184768285156

---------------
SCF CONVERGENCE
---------------

  Last Energy change         ...    2.6818e-09  Tolerance :   1.0000e-08
  Last MAX-Density change    ...    2.4689e-06  Tolerance :   1.0000e-07
  Last RMS-Density change    ...    2.7871e-07  Tolerance :   5.0000e-09
  Last DIIS Error            ...    2.0475e-03  Tolerance :   5.0000e-07
  Last Orbital Gradient      ...    2.6028e-06  Tolerance :   1.0000e-05
  Last Orbital Rotation      ...    4.9063e-06  Tolerance :   1.0000e-05


----------------
ORBITAL ENERGIES
----------------

  NO   OCC          E(Eh)            E(eV) 
   0   2.0000     -20.620044      -561.0999 
   1   2.0000     -20.619720      -561.0911 
   2   2.0000      -1.476639       -40.1814 
   3   2.0000      -1.190915       -32.4064 
   4   2.0000      -0.707473       -19.2513 
   5   2.0000      -0.697564       -18.9817 
   6   2.0000      -0.632038       -17.1986 
   7   2.0000      -0.517688       -14.0870 
   8   2.0000      -0.442382       -12.0378 
   9   0.0000       0.138951         3.7810 
  10   0.0000       0.139207         3.7880 
  11   0.0000       0.298962         8.1352 
  12   0.0000       0.534251        14.5377 
  13   0.0000       0.556196        15.1349 
  14   0.0000       0.577700        15.7200 
  15   0.0000       0.588024        16.0009 
  16   0.0000       0.615462        16.7476 
  17   0.0000       0.658806        17.9270 
  18   0.0000       0.671642        18.2763 
  19   0.0000       0.754105        20.5202 
*Only the first 10 virtual orbitals were printed.

                    ********************************
                    * MULLIKEN POPULATION ANALYSIS *
                    ********************************

-----------------------
MULLIKEN ATOMIC CHARGES
-----------------------
   0 O :   -0.364808
   1 O :   -0.364808
   2 H :    0.364808
   3 H :    0.364808
Sum of atomic charges:    0.0000000

--------------------------------
MULLIKEN REDUCED ORBITAL CHARGES
--------------------------------
  0 O s       :     3.828231  s :     3.828231
      pz      :     1.976417  p :     4.492824
      px      :     1.012994
      py      :     1.503413
      dz2     :     0.005912  d :     0.040956
      dxz     :     0.006938
      dyz     :     0.001263
      dx2y2   :     0.020266
      dxy     :     0.006578
      f0      :     0.000262  f :     0.002796
      f+1     :     0.000687
      f-1     :     0.000386
      f+2     :     0.000296
      f-2     :     0.000022
      f+3     :     0.000759
      f-3     :     0.000385

  1 O s       :     3.828231  s :     3.828231
      pz      :     1.976417  p :     4.492824
      px      :     1.012994
      py      :     1.503413
      dz2     :     0.005912  d :     0.040956
      dxz     :     0.006938
      dyz     :     0.001263
      dx2y2   :     0.020266
      dxy     :     0.006578
      f0      :     0.000262  f :     0.002796
      f+1     :     0.000687
      f-1     :     0.000386
      f+2     :     0.000296
      f-2     :     0.000022
      f+3     :     0.000759
      f-3     :     0.000385

  2 H s       :     0.594121  s :     0.594121
      pz      :     0.014803  p :     0.041071
      px      :     0.008139
      py      :     0.018130

  3 H s       :     0.594121  s :     0.594121
      pz      :     0.014803  p :     0.041071
      px      :     0.008139
      py      :     0.018130



                     *******************************
                     * LOEWDIN POPULATION ANALYSIS *
                     *******************************

----------------------
LOEWDIN ATOMIC CHARGES
----------------------
   0 O :   -0.191791
   1 O :   -0.191791
   2 H :    0.191791
   3 H :    0.191791

-------------------------------
LOEWDIN REDUCED ORBITAL CHARGES
-------------------------------
  0 O s       :     3.515808  s :     3.515808
      pz      :     1.931062  p :     4.562132
      px      :     1.114502
      py      :     1.516569
      dz2     :     0.013613  d :     0.105552
      dxz     :     0.025007
      dyz     :     0.000470
      dx2y2   :     0.043942
      dxy     :     0.022520
      f0      :     0.000853  f :     0.008298
      f+1     :     0.001551
      f-1     :     0.000452
      f+2     :     0.001334
      f-2     :     0.000001
      f+3     :     0.002358
      f-3     :     0.001748

  1 O s       :     3.515808  s :     3.515808
      pz      :     1.931062  p :     4.562132
      px      :     1.114502
      py      :     1.516569
      dz2     :     0.013613  d :     0.105552
      dxz     :     0.025007
      dyz     :     0.000470
      dx2y2   :     0.043942
      dxy     :     0.022520
      f0      :     0.000853  f :     0.008298
      f+1     :     0.001551
      f-1     :     0.000452
      f+2     :     0.001334
      f-2     :     0.000001
      f+3     :     0.002358
      f-3     :     0.001748

  2 H s       :     0.663767  s :     0.663767
      pz      :     0.041273  p :     0.144442
      px      :     0.022913
      py      :     0.080257

  3 H s       :     0.663767  s :     0.663767
      pz      :     0.041273  p :     0.144442
      px      :     0.022913
      py      :     0.080257



                      *****************************
                      * MAYER POPULATION ANALYSIS *
                      *****************************

  NA   - Mulliken gross atomic population
  ZA   - Total nuclear charge
  QA   - Mulliken gross atomic charge
  VA   - Mayer's total valence
  BVA  - Mayer's bonded valence
  FA   - Mayer's free valence

  ATOM       NA         ZA         QA         VA         BVA        FA
  0 O      8.3648     8.0000    -0.3648     1.7236     1.7236     0.0000
  1 O      8.3648     8.0000    -0.3648     1.7236     1.7236     0.0000
  2 H      0.6352     1.0000     0.3648     0.8792     0.8792     0.0000
  3 H      0.6352     1.0000     0.3648     0.8792     0.8792     0.0000

  Mayer bond orders larger than 0.100000
B(  0-O ,  1-O ) :   0.8505 B(  0-O ,  2-H ) :   0.8682 B(  1-O ,  3-H ) :   0.8682 


-------
TIMINGS
-------

Total SCF time: 0 days 0 hours 0 min 1 sec 

Total time                  ....       1.744 sec
Sum of individual times     ....       1.620 sec  ( 92.9%)

SCF preparation             ....       0.032 sec  (  1.8%)
Fock matrix formation       ....       1.561 sec  ( 89.5%)
  Startup                   ....       0.000 sec  (  0.0% of F)
  Coulomb+Exchange Fock     ....       1.670 sec  (107.0% of F)
Diagonalization             ....       0.000 sec  (  0.0%)
Density matrix formation    ....       0.006 sec  (  0.3%)
Total Energy calculation    ....       0.000 sec  (  0.0%)
Population analysis         ....       0.001 sec  (  0.1%)
Orbital Transformation      ....       0.003 sec  (  0.2%)
Orbital Orthonormalization  ....       0.000 sec  (  0.0%)
DIIS solution               ....       0.012 sec  (  0.7%)
SOSCF solution              ....       0.005 sec  (  0.3%)
Finished LeanSCF after   1.7 sec

Maximum memory used throughout the entire LEANSCF-calculation: 12.5 MB

------------------------------------------------------------------------------
                                ORCA  MP2 
------------------------------------------------------------------------------

Freezing NCore=4 chemical core electrons
MP2 will be done in the AO integral direct mode
The Q1-step will be done using symmetric double matrices
Dimension of the basis                    ...   74
Memory devoted for MP2                    ... 4096 MB   
Memory needed for all in one shot         ...   12 MB
Number of MOs that can be treated together... 2613      
MP2 density construction                  ... relaxed
The MP2 gradient is requested => amplitudes will be stored on disk
Total number of MOs              ...    7
Number of MOs treated per batch  ...    7 
Number of batches necessary      ...    1 
OPERATORS   0/  0 PASS   0
-----------------------------------------------
 MP2 CORRELATION ENERGY   :     -0.485615008 Eh
-----------------------------------------------


---------------------
MP2 DENSITY FORMATION
---------------------

Completing the external part of the density      ... done
Storing the unrelaxed density                    ... done

Calculating G(D)                                 ... done
Completing the Lagrangian                        ... done
Solving the Z-vector equations                   ... 
-------------------
SHARK CP-SCF DRIVER
-------------------

Dimension of the orbital basis          ...     74
Dimension of the CPSCF-problem          ...    585
Number of operators                     ...      1
Max. number of iterations               ...    128
Convergence Tolerance                   ... 1.0e-04
Number of perturbations                 ...      1
Perturbation type                       ... REAL

----------------------------
POPLE LINEAR EQUATION SOLVER
----------------------------

  ITERATION   0:   ||err||_max =   4.8838e-02 (   0.2 sec)
  ITERATION   1:   ||err||_max =   1.5636e-02 (   0.2 sec)
  ITERATION   2:   ||err||_max =   2.9458e-03 (   0.2 sec)
  ITERATION   3:   ||err||_max =   6.8527e-04 (   0.2 sec)
  ITERATION   4:   ||err||_max =   1.4342e-04 (   0.2 sec)
  ITERATION   5:   ||err||_max =   2.2077e-05 (   0.2 sec)
                                                 ... done
Finalizing the relaxed density                   ... done
Transforming P to the AO basis                   ... done
Storing the relaxed density                      ... done

------------------------------------
ENERGY WEIGHTED DENSITY FINALIZATION
------------------------------------

Gathering the parts of the W-matrix              ...                                                      done
Forming the Z-density                            ... done
Transforming Z to the AO basis                   ... done
Calculating G(Z)                                 ... done
Finalizing the W-matrix                          ...                                                      done
Transforming W to the AO basis and storing       ... done

                *********************************************
                * UNRELAXED MP2 DENSITY POPULATION ANALYSIS *
                *********************************************

------------------------------------------------------------------------------
                           ORCA POPULATION ANALYSIS
------------------------------------------------------------------------------
Input electron density              ... nadtlenek.pmp2ur
BaseName (.gbw .S,...)              ... nadtlenek

                    ********************************
                    * MULLIKEN POPULATION ANALYSIS *
                    ********************************

-----------------------
MULLIKEN ATOMIC CHARGES
-----------------------
   0 O :   -0.362078
   1 O :   -0.362078
   2 H :    0.362078
   3 H :    0.362078
Sum of atomic charges:    0.0000000

--------------------------------
MULLIKEN REDUCED ORBITAL CHARGES
--------------------------------
  0 O s       :     3.823134  s :     3.823134
      pz      :     1.963421  p :     4.467650
      px      :     1.011031
      py      :     1.493198
      dz2     :     0.010980  d :     0.065992
      dxz     :     0.012484
      dyz     :     0.006770
      dx2y2   :     0.024191
      dxy     :     0.011567
      f0      :     0.000631  f :     0.005302
      f+1     :     0.001018
      f-1     :     0.000746
      f+2     :     0.000674
      f-2     :     0.000383
      f+3     :     0.001094
      f-3     :     0.000756
  1 O s       :     3.823134  s :     3.823134
      pz      :     1.963421  p :     4.467650
      px      :     1.011031
      py      :     1.493198
      dz2     :     0.010980  d :     0.065992
      dxz     :     0.012484
      dyz     :     0.006770
      dx2y2   :     0.024191
      dxy     :     0.011567
      f0      :     0.000631  f :     0.005302
      f+1     :     0.001018
      f-1     :     0.000746
      f+2     :     0.000674
      f-2     :     0.000383
      f+3     :     0.001094
      f-3     :     0.000756
  2 H s       :     0.595411  s :     0.595411
      pz      :     0.015702  p :     0.042511
      px      :     0.008710
      py      :     0.018098
  3 H s       :     0.595411  s :     0.595411
      pz      :     0.015702  p :     0.042511
      px      :     0.008710
      py      :     0.018098


                     *******************************
                     * LOEWDIN POPULATION ANALYSIS *
                     *******************************

----------------------
LOEWDIN ATOMIC CHARGES
----------------------
   0 O :   -0.190059
   1 O :   -0.190059
   2 H :    0.190059
   3 H :    0.190059

-------------------------------
LOEWDIN REDUCED ORBITAL CHARGES
-------------------------------
  0 O s       :     3.511847  s :     3.511847
      pz      :     1.918435  p :     4.534863
      px      :     1.110353
      py      :     1.506075
      dz2     :     0.019429  d :     0.132217
      dxz     :     0.030354
      dyz     :     0.005828
      dx2y2   :     0.049264
      dxy     :     0.027341
      f0      :     0.001228  f :     0.011133
      f+1     :     0.001968
      f-1     :     0.000849
      f+2     :     0.001720
      f-2     :     0.000368
      f+3     :     0.002855
      f-3     :     0.002145
  1 O s       :     3.511847  s :     3.511847
      pz      :     1.918435  p :     4.534863
      px      :     1.110353
      py      :     1.506075
      dz2     :     0.019429  d :     0.132217
      dxz     :     0.030354
      dyz     :     0.005828
      dx2y2   :     0.049264
      dxy     :     0.027341
      f0      :     0.001228  f :     0.011133
      f+1     :     0.001968
      f-1     :     0.000849
      f+2     :     0.001720
      f-2     :     0.000368
      f+3     :     0.002855
      f-3     :     0.002145
  2 H s       :     0.662435  s :     0.662435
      pz      :     0.042132  p :     0.147506
      px      :     0.023722
      py      :     0.081652
  3 H s       :     0.662435  s :     0.662435
      pz      :     0.042132  p :     0.147506
      px      :     0.023722
      py      :     0.081652


                      *****************************
                      * MAYER POPULATION ANALYSIS *
                      *****************************

  NA   - Mulliken gross atomic population
  ZA   - Total nuclear charge
  QA   - Mulliken gross atomic charge
  VA   - Mayer's total valence
  BVA  - Mayer's bonded valence
  FA   - Mayer's free valence

  ATOM       NA         ZA         QA         VA         BVA        FA
  0 O      8.3621     8.0000    -0.3621     2.0035     1.5872     0.4163
  1 O      8.3621     8.0000    -0.3621     2.0035     1.5872     0.4163
  2 H      0.6379     1.0000     0.3621     0.8850     0.8360     0.0490
  3 H      0.6379     1.0000     0.3621     0.8850     0.8360     0.0490

  Mayer bond orders larger than 0.100000
B(  0-O ,  1-O ) :   0.7571 B(  0-O ,  2-H ) :   0.8265 B(  1-O ,  3-H ) :   0.8265 



                *******************************************
                * RELAXED MP2 DENSITY POPULATION ANALYSIS *
                *******************************************

------------------------------------------------------------------------------
                           ORCA POPULATION ANALYSIS
------------------------------------------------------------------------------
Input electron density              ... nadtlenek.pmp2re
BaseName (.gbw .S,...)              ... nadtlenek

                    ********************************
                    * MULLIKEN POPULATION ANALYSIS *
                    ********************************

-----------------------
MULLIKEN ATOMIC CHARGES
-----------------------
   0 O :   -0.354179
   1 O :   -0.354179
   2 H :    0.354179
   3 H :    0.354179
Sum of atomic charges:    0.0000000

--------------------------------
MULLIKEN REDUCED ORBITAL CHARGES
--------------------------------
  0 O s       :     3.834073  s :     3.834073
      pz      :     1.960879  p :     4.450860
      px      :     1.010553
      py      :     1.479428
      dz2     :     0.010360  d :     0.063993
      dxz     :     0.013607
      dyz     :     0.006896
      dx2y2   :     0.021392
      dxy     :     0.011738
      f0      :     0.000640  f :     0.005252
      f+1     :     0.001014
      f-1     :     0.000741
      f+2     :     0.000673
      f-2     :     0.000382
      f+3     :     0.001056
      f-3     :     0.000746
  1 O s       :     3.834073  s :     3.834073
      pz      :     1.960879  p :     4.450860
      px      :     1.010553
      py      :     1.479428
      dz2     :     0.010360  d :     0.063993
      dxz     :     0.013607
      dyz     :     0.006896
      dx2y2   :     0.021392
      dxy     :     0.011738
      f0      :     0.000640  f :     0.005252
      f+1     :     0.001014
      f-1     :     0.000741
      f+2     :     0.000673
      f-2     :     0.000382
      f+3     :     0.001056
      f-3     :     0.000746
  2 H s       :     0.603042  s :     0.603042
      pz      :     0.016988  p :     0.042779
      px      :     0.008647
      py      :     0.017143
  3 H s       :     0.603042  s :     0.603042
      pz      :     0.016988  p :     0.042779
      px      :     0.008647
      py      :     0.017143


                     *******************************
                     * LOEWDIN POPULATION ANALYSIS *
                     *******************************

----------------------
LOEWDIN ATOMIC CHARGES
----------------------
   0 O :   -0.190197
   1 O :   -0.190197
   2 H :    0.190197
   3 H :    0.190197

-------------------------------
LOEWDIN REDUCED ORBITAL CHARGES
-------------------------------
  0 O s       :     3.518717  s :     3.518717
      pz      :     1.915637  p :     4.528632
      px      :     1.109767
      py      :     1.503229
      dz2     :     0.019299  d :     0.131682
      dxz     :     0.031565
      dyz     :     0.005898
      dx2y2   :     0.047508
      dxy     :     0.027413
      f0      :     0.001205  f :     0.011166
      f+1     :     0.002001
      f-1     :     0.000858
      f+2     :     0.001681
      f-2     :     0.000368
      f+3     :     0.002940
      f-3     :     0.002114
  1 O s       :     3.518717  s :     3.518717
      pz      :     1.915637  p :     4.528632
      px      :     1.109767
      py      :     1.503229
      dz2     :     0.019299  d :     0.131682
      dxz     :     0.031565
      dyz     :     0.005898
      dx2y2   :     0.047508
      dxy     :     0.027413
      f0      :     0.001205  f :     0.011166
      f+1     :     0.002001
      f-1     :     0.000858
      f+2     :     0.001681
      f-2     :     0.000368
      f+3     :     0.002940
      f-3     :     0.002114
  2 H s       :     0.662246  s :     0.662246
      pz      :     0.043712  p :     0.147557
      px      :     0.023032
      py      :     0.080813
  3 H s       :     0.662246  s :     0.662246
      pz      :     0.043712  p :     0.147557
      px      :     0.023032
      py      :     0.080813


                      *****************************
                      * MAYER POPULATION ANALYSIS *
                      *****************************

  NA   - Mulliken gross atomic population
  ZA   - Total nuclear charge
  QA   - Mulliken gross atomic charge
  VA   - Mayer's total valence
  BVA  - Mayer's bonded valence
  FA   - Mayer's free valence

  ATOM       NA         ZA         QA         VA         BVA        FA
  0 O      8.3542     8.0000    -0.3542     2.0300     1.6207     0.4093
  1 O      8.3542     8.0000    -0.3542     2.0300     1.6207     0.4093
  2 H      0.6458     1.0000     0.3542     0.8903     0.8415     0.0489
  3 H      0.6458     1.0000     0.3542     0.8903     0.8415     0.0489

  Mayer bond orders larger than 0.100000
B(  0-O ,  1-O ) :   0.7855 B(  0-O ,  2-H ) :   0.8306 B(  1-O ,  3-H ) :   0.8306 



----------------------------------
MP2 DERIVATIVE INTEGRAL GENERATION
----------------------------------

Input SCF Electron Density              ... nadtlenek.scfp
Input Correlated Electron Density       ... nadtlenek.pmp2re
Input Energy Weighted Density           ... nadtlenek.wmp2.tmp
Input Wavefunction Amplitudes           ... nadtlenek.mp2tsaa.tmp

Nuclear repulsion gradient              ... done (  0.0 sec)
HCore & Overlap gradient  (SHARK)       ... done (  0.0 sec)
Analytic two-electron gradient terms    ... 
  Batch handling in the gradient evaluation:
  General contraction                   ... not used
  Memory available                      ... 4092.0 MB
  Memory per occupied orbital in Q2     ...    0.3 MB
  Memory per occupied orbital in Q3     ...    0.0 MB
  Total memory requirement per |i>      ...    0.3 MB
  Number of orbitals treated per batch  ...      7
  Number of batches to be done          ...      1
done (  1.0 sec)

---------------------------------------
MP2 TOTAL ENERGY:     -151.316688365 Eh
---------------------------------------

The final MP2 gradient
  0:   0.04849877   0.00969778  -0.00000000
  1:  -0.04849877  -0.00969778   0.00000000
  2:  -0.03088966   0.02185973  -0.00000000
  3:   0.03088966  -0.02185973  -0.00000000

-----------------------------------
NORM OF THE MP2 GRADIENT:  0.088070
-----------------------------------

Maximum memory used throughout the entire MP2-calculation: 29.7 MB

-------------------------   --------------------
FINAL SINGLE POINT ENERGY      -151.316688364756
-------------------------   --------------------

------------------------------------------------------------------------------
                         ORCA GEOMETRY RELAXATION STEP
------------------------------------------------------------------------------

Reading the OPT-File                    .... done
Getting information on internals        .... done
Copying old internal coords+grads       .... done
Making the new internal coordinates     .... (2022 redundants) done
Validating the new internal coordinates .... (2022 redundants) done
Calculating the B-matrix                .... done
Calculating the G,G- and P matrices     .... done
Transforming gradient to internals      .... done
Projecting the internal gradient        .... done
Number of atoms                         ....   4
Number of internal coordinates          ....   6
Current Energy                          ....  -151.316688365 Eh
Current gradient norm                   ....     0.088070385 Eh/bohr
Maximum allowed component of the step   ....  0.300
Current trust radius                    ....  0.300
Evaluating the initial hessian          ....  (Almloef) done
Projecting the Hessian                  .... done
Forming the augmented Hessian           .... done
Diagonalizing the augmented Hessian     .... done
Last element of RFO vector              ....  0.981902861
Lowest eigenvalues of augmented Hessian:
 -0.014426266  0.017336942  0.343836110  0.353124339  0.448899098
Length of the computed step             ....  0.192875745
The final length of the internal step   ....  0.192875745
Converting the step to Cartesian space:
 Initial RMS(Int)=    0.0787411932
Transforming coordinates:
 Iter   0:  RMS(Cart)=    0.0674702036 RMS(Int)=    0.0785238846
 Iter   5:  RMS(Cart)=    0.0000000237 RMS(Int)=    0.0000000432
done
Storing new coordinates                 .... done

                                .--------------------.
          ----------------------|Geometry convergence|-------------------------
          Item                value                   Tolerance       Converged
          ---------------------------------------------------------------------
          RMS gradient        0.0307769808            0.0001000000      NO
          MAX gradient        0.0417442313            0.0003000000      NO
          RMS step            0.0787411932            0.0020000000      NO
          MAX step            0.1165186025            0.0040000000      NO
          -------------------------------------------------------------------------
          ........................................................
          Max(Bonds)      0.0351      Max(Angles)    6.68
          Max(Dihed)        0.00      Max(Improp)    0.00
          ---------------------------------------------------------------------

The optimization has not yet converged - more geometry cycles are needed


    ---------------------------------------------------------------------------
                         Redundant Internal Coordinates
                            (Angstroem and degrees)

        Definition                    Value    dE/dq     Step     New-Value
    ----------------------------------------------------------------------------
     1. B(O   1,O   0)                1.4000 -0.017609  0.0187    1.4187   
     2. B(H   2,O   0)                1.0000  0.030725 -0.0351    0.9649   
     3. B(H   3,O   1)                1.0000  0.030725 -0.0351    0.9649   
     4. A(O   1,O   0,H   2)          109.00  0.041744   -6.68    102.32   
     5. A(O   0,O   1,H   3)          109.00  0.041744   -6.68    102.32   
     6. D(H   3,O   1,O   0,H   2)    180.00  0.000000   -0.00    180.00   
    ----------------------------------------------------------------------------

Geometry step timings:
Preparation and reading OPT file:      0.000 s ( 4.715 %)
Internal coordinates            :      0.000 s ( 3.970 %)
B/P matrices and projection     :      0.000 s (17.866 %)
Hessian update/contruction      :      0.000 s (17.618 %)
Making the step                 :      0.000 s (21.092 %)
Converting the step to Cartesian:      0.000 s ( 8.933 %)
Storing new data                :      0.000 s ( 3.970 %)
Checking convergence            :      0.000 s ( 5.707 %)
Final printing                  :      0.000 s (16.129 %)
Total time                      :      0.000 s

Time for energy+gradient        :      2.464 s
Time for complete geometry iter :      2.481 s

         *************************************************************
         *                GEOMETRY OPTIMIZATION CYCLE   2            *
         *************************************************************
---------------------------------
CARTESIAN COORDINATES (ANGSTROEM)
---------------------------------
  O     -0.008692   -0.030866   -0.000000
  O      1.408692    0.030866   -0.000000
  H     -0.255463    0.901954    0.000000
  H      1.655463   -0.901954    0.000000

----------------------------
CARTESIAN COORDINATES (A.U.)
----------------------------
  NO LB      ZA    FRAG     MASS         X           Y           Z
   0 O     8.0000    0    15.999   -0.016426   -0.058327   -0.000000
   1 O     8.0000    0    15.999    2.662043    0.058327   -0.000000
   2 H     1.0000    0     1.008   -0.482756    1.704445    0.000000
   3 H     1.0000    0     1.008    3.128373   -1.704445    0.000000

--------------------------------
INTERNAL COORDINATES (ANGSTROEM)
--------------------------------
 O      0   0   0     0.000000000000     0.00000000     0.00000000
 O      1   0   0     1.418728327046     0.00000000     0.00000000
 H      1   2   0     0.964908017260   102.32395938     0.00000000
 H      2   1   3     0.964908017258   102.32395938   180.00000000

---------------------------
INTERNAL COORDINATES (A.U.)
---------------------------
 O      0   0   0     0.000000000000     0.00000000     0.00000000
 O      1   0   0     2.681007996553     0.00000000     0.00000000
 H      1   2   0     1.823411897047   102.32395938     0.00000000
 H      2   1   3     1.823411897042   102.32395938   180.00000000

------------------------------------------------------------------------------
                   ___                                                        
                  /   \      - P O W E R E D   B Y -                         
                 /     \                                                     
                 |  |  |   _    _      __       _____    __    __             
                 |  |  |  | |  | |    /  \     |  _  \  |  |  /  |          
                  \  \/   | |  | |   /    \    | | | |  |  | /  /          
                 / \  \   | |__| |  /  /\  \   | |_| |  |  |/  /          
                |  |  |   |  __  | /  /__\  \  |    /   |      \           
                |  |  |   | |  | | |   __   |  |    \   |  |\   \          
                \     /   | |  | | |  |  |  |  | |\  \  |  | \   \       
                 \___/    |_|  |_| |__|  |__|  |_| \__\ |__|  \__/        
                                                                              
                      - O R C A' S   B I G   F R I E N D -                    
                                      &                                       
                       - I N T E G R A L  F E E D E R -                       
                                                                              
 v1 FN, 2020, v2 2021, v3 2022-2024                                           
------------------------------------------------------------------------------


----------------------
SHARK INTEGRAL PACKAGE
----------------------

Number of atoms                             ...      4
Number of basis functions                   ...     74
Number of shells                            ...     30
Maximum angular momentum                    ...      3
Integral batch strategy                     ... SHARK/LIBINT Hybrid
RI-J (if used) integral strategy            ... SPLIT-RIJ (Revised 2003 algorithm where possible)
Printlevel                                  ...      1
Contraction scheme used                     ... SEGMENTED contraction
Prescreening option                         ... SCHWARTZ
   Thresh                                   ... 2.500e-11
   Tcut                                     ... 2.500e-12
   Tpresel                                  ... 2.500e-12 
Coulomb Range Separation                    ... NOT USED
Exchange Range Separation                   ... NOT USED
Multipole approximations                    ... NOT USED
Finite Nucleus Model                        ... NOT USED
CABS basis                                  ... NOT available
Auxiliary Coulomb fitting basis             ... NOT available
Auxiliary J/K fitting basis                 ... NOT available
Auxiliary Correlation fitting basis         ... NOT available
Auxiliary 'external' fitting basis          ... NOT available

Checking pre-screening integrals            ... done (  0.0 sec) Dimension = 30
   => SHARK Basis and OBASIS are compatible. Storing Pre-screening
Shell pair information
Shell pair cut-off parameter TPreSel        ...   2.5e-12
Total number of shell pairs                 ...       465
Shell pairs after pre-screening             ...       462
Total number of primitive shell pairs       ...      1428
Primitive shell pairs kept                  ...      1259
          la=0 lb=0:    133 shell pairs
          la=1 lb=0:    128 shell pairs
          la=1 lb=1:     36 shell pairs
          la=2 lb=0:     64 shell pairs
          la=2 lb=1:     32 shell pairs
          la=2 lb=2:     10 shell pairs
          la=3 lb=0:     32 shell pairs
          la=3 lb=1:     16 shell pairs
          la=3 lb=2:      8 shell pairs
          la=3 lb=3:      3 shell pairs

Checking whether 4 symmetric matrices of dimension 74 fit in memory
:Max Core in MB      =   4096.00
 MB in use           =      2.50
 MB left             =   4093.50
 MB needed           =      0.08
 Data fit in memory  = YES
Calculating Nuclear repulsion               ... done (  0.0 sec) ENN=     37.355333870476 Eh

Diagonalization of the overlap matrix:
Smallest eigenvalue                        ... 4.858e-03
Time for diagonalization                   ...    0.001 sec
Threshold for overlap eigenvalues          ... 1.000e-07
Number of eigenvalues below threshold      ... 0
Time for construction of square roots      ...    0.000 sec
Total time needed                          ...    0.001 sec

-------------------
DFT GRID GENERATION
-------------------

General Integration Accuracy     IntAcc      ... 4.388
Radial Grid Type                 RadialGrid  ... OptM3 with GC (2021)
Angular Grid (max. ang.)         AngularGrid ... 4 (Lebedev-302)
Angular grid pruning method      GridPruning ... 4 (adaptive)
Weight generation scheme         WeightScheme... mBecke (2022)
Basis function cutoff            BFCut       ... 1.0000e-11
Integration weight cutoff        WCut        ... 1.0000e-14
Partially contracted basis set               ... off
Rotationally invariant grid construction     ... off
Angular grids for H and He will be reduced by one unit

Total number of grid points                  ...    18858
Total number of batches                      ...      296
Average number of points per batch           ...       63
Average number of grid points per atom       ...     4714
Grids setup in   0.1 sec
Initializing property integral containers    ... done (  0.0 sec)

SHARK setup successfully completed in   0.1 seconds

Maximum memory used throughout the entire STARTUP-calculation: 12.6 MB
Occupation numbers will be reassigned to an Aufbau configuration
             **** ENERGY FILE WAS UPDATED (nadtlenek.en.tmp) ****
Finished Guess after   0.0 sec
Maximum memory used throughout the entire GUESS-calculation: 6.8 MB
----------------------------------------D-I-I-S--------------------------------------------
Iteration    Energy (Eh)           Delta-E    RMSDP     MaxDP     DIISErr   Damp  Time(sec)
-------------------------------------------------------------------------------------------
               ***  Starting incremental Fock matrix formation  ***
    1    -150.8391729877393459     0.00e+00  2.21e-04  1.92e-03  1.95e-02  0.700   0.1
    2    -150.8396786145695501    -5.06e-04  1.96e-04  1.52e-03  1.49e-02  0.700   0.1
                               ***Turning on AO-DIIS***
    3    -150.8400722421833962    -3.94e-04  1.77e-04  1.49e-03  1.12e-02  0.700   0.1
    4    -150.8403720037299536    -3.00e-04  4.86e-04  4.17e-03  8.01e-03  0.000   0.1
                              *** Initializing SOSCF ***
---------------------------------------S-O-S-C-F--------------------------------------
Iteration    Energy (Eh)           Delta-E    RMSDP     MaxDP     MaxGrad    Time(sec)
--------------------------------------------------------------------------------------
    5    -150.8412184068330930    -8.46e-04  6.63e-05  5.52e-04  1.13e-03     0.1
               *** Restarting incremental Fock matrix formation ***
    6    -150.8412281945333007    -9.79e-06  3.43e-05  3.20e-04  5.65e-04     0.1
    7    -150.8412303740347511    -2.18e-06  2.58e-05  2.42e-04  2.74e-04     0.1
    8    -150.8412309295634373    -5.56e-07  3.21e-06  3.53e-05  3.36e-05     0.1
    9    -150.8412309408378746    -1.13e-08  8.89e-07  9.57e-06  1.49e-05     0.1
   10    -150.8412309426320803    -1.79e-09  2.16e-07  1.97e-06  2.18e-06     0.1
                 **** Energy Check signals convergence ****

               *****************************************************
               *                     SUCCESS                       *
               *           SCF CONVERGED AFTER  10 CYCLES          *
               *****************************************************

             **** ENERGY FILE WAS UPDATED (nadtlenek.en.tmp) ****

----------------
TOTAL SCF ENERGY
----------------

Total Energy       :       -150.84123094274116 Eh           -4104.59857 eV

Components:
Nuclear Repulsion  :         37.35533387047566 Eh            1016.49031 eV
Electronic Energy  :       -188.19656481321681 Eh           -5121.08888 eV
One Electron Energy:       -282.45116283629352 Eh           -7685.88688 eV
Two Electron Energy:         94.25459802307671 Eh            2564.79800 eV

Virial components:
Potential Energy   :       -301.52108928269672 Eh           -8204.80596 eV
Kinetic Energy     :        150.67985833995553 Eh            4100.20740 eV
Virial Ratio       :          2.00107096332956

---------------
SCF CONVERGENCE
---------------

  Last Energy change         ...    1.7942e-09  Tolerance :   1.0000e-08
  Last MAX-Density change    ...    1.9664e-06  Tolerance :   1.0000e-07
  Last RMS-Density change    ...    2.1632e-07  Tolerance :   5.0000e-09
  Last DIIS Error            ...    1.1263e-03  Tolerance :   5.0000e-07
  Last Orbital Gradient      ...    2.1779e-06  Tolerance :   1.0000e-05
  Last Orbital Rotation      ...    2.7663e-06  Tolerance :   1.0000e-05


Total SCF time: 0 days 0 hours 0 min 1 sec 
Finished LeanSCF after   1.4 sec

Maximum memory used throughout the entire LEANSCF-calculation: 12.6 MB

------------------------------------------------------------------------------
                                ORCA  MP2 
------------------------------------------------------------------------------

Freezing NCore=4 chemical core electrons
MP2 will be done in the AO integral direct mode
The Q1-step will be done using symmetric double matrices
Dimension of the basis                    ...   74
Memory devoted for MP2                    ... 4096 MB   
Memory needed for all in one shot         ...   12 MB
Number of MOs that can be treated together... 2613      
MP2 density construction                  ... relaxed
The MP2 gradient is requested => amplitudes will be stored on disk
Total number of MOs              ...    7
Number of MOs treated per batch  ...    7 
Number of batches necessary      ...    1 
OPERATORS   0/  0 PASS   0
-----------------------------------------------
 MP2 CORRELATION ENERGY   :     -0.484671354 Eh
-----------------------------------------------


---------------------
MP2 DENSITY FORMATION
---------------------

Completing the external part of the density      ... done
Storing the unrelaxed density                    ... done

Calculating G(D)                                 ... done
Completing the Lagrangian                        ... done
Solving the Z-vector equations                   ... 
-------------------
SHARK CP-SCF DRIVER
-------------------

Dimension of the orbital basis          ...     74
Dimension of the CPSCF-problem          ...    585
Number of operators                     ...      1
Max. number of iterations               ...    128
Convergence Tolerance                   ... 1.0e-04
Number of perturbations                 ...      1
Perturbation type                       ... REAL

----------------------------
POPLE LINEAR EQUATION SOLVER
----------------------------

  ITERATION   0:   ||err||_max =   4.9196e-02 (   0.2 sec)
  ITERATION   1:   ||err||_max =   1.4535e-02 (   0.2 sec)
  ITERATION   2:   ||err||_max =   2.7729e-03 (   0.2 sec)
  ITERATION   3:   ||err||_max =   6.5038e-04 (   0.2 sec)
  ITERATION   4:   ||err||_max =   1.3398e-04 (   0.2 sec)
  ITERATION   5:   ||err||_max =   2.0074e-05 (   0.2 sec)
                                                 ... done
Finalizing the relaxed density                   ... done
Transforming P to the AO basis                   ... done
Storing the relaxed density                      ... done

------------------------------------
ENERGY WEIGHTED DENSITY FINALIZATION
------------------------------------

Gathering the parts of the W-matrix              ...                                                      done
Forming the Z-density                            ... done
Transforming Z to the AO basis                   ... done
Calculating G(Z)                                 ... done
Finalizing the W-matrix                          ...                                                      done
Transforming W to the AO basis and storing       ... done

----------------------------------
MP2 DERIVATIVE INTEGRAL GENERATION
----------------------------------

Input SCF Electron Density              ... nadtlenek.scfp
Input Correlated Electron Density       ... nadtlenek.pmp2re
Input Energy Weighted Density           ... nadtlenek.wmp2.tmp
Input Wavefunction Amplitudes           ... nadtlenek.mp2tsaa.tmp

Nuclear repulsion gradient              ... done (  0.0 sec)
HCore & Overlap gradient  (SHARK)       ... done (  0.0 sec)
Analytic two-electron gradient terms    ... 
  Batch handling in the gradient evaluation:
  General contraction                   ... not used
  Memory available                      ... 4091.9 MB
  Memory per occupied orbital in Q2     ...    0.3 MB
  Memory per occupied orbital in Q3     ...    0.0 MB
  Total memory requirement per |i>      ...    0.3 MB
  Number of orbitals treated per batch  ...      7
  Number of batches to be done          ...      1
done (  0.9 sec)

---------------------------------------
MP2 TOTAL ENERGY:     -151.325902297 Eh
---------------------------------------

The final MP2 gradient
  0:   0.02300732   0.01474526   0.00000000
  1:  -0.02300732  -0.01474526   0.00000000
  2:  -0.00730054  -0.00330265  -0.00000000
  3:   0.00730054   0.00330265  -0.00000000

-----------------------------------
NORM OF THE MP2 GRADIENT:  0.040273
-----------------------------------

Maximum memory used throughout the entire MP2-calculation: 29.8 MB

-------------------------   --------------------
FINAL SINGLE POINT ENERGY      -151.325902296520
-------------------------   --------------------

------------------------------------------------------------------------------
                         ORCA GEOMETRY RELAXATION STEP
------------------------------------------------------------------------------

Reading the OPT-File                    .... done
Getting information on internals        .... done
Copying old internal coords+grads       .... done
Making the new internal coordinates     .... (2022 redundants) done
Validating the new internal coordinates .... (2022 redundants) done
Calculating the B-matrix                .... done
Calculating the G,G- and P matrices     .... done
Transforming gradient to internals      .... done
Projecting the internal gradient        .... done
Number of atoms                         ....   4
Number of internal coordinates          ....   6
Current Energy                          ....  -151.325902297 Eh
Current gradient norm                   ....     0.040273185 Eh/bohr
Maximum allowed component of the step   ....  0.300
Current trust radius                    ....  0.300
Updating the Hessian (BFGS)             .... done
Forming the augmented Hessian           .... done
Diagonalizing the augmented Hessian     .... done
Last element of RFO vector              ....  0.994673394
Lowest eigenvalues of augmented Hessian:
 -0.002643358  0.017336942  0.235448154  0.343836110  0.448899098
Length of the computed step             ....  0.103628851
The final length of the internal step   ....  0.103628851
Converting the step to Cartesian space:
 Initial RMS(Int)=    0.0423063014
Transforming coordinates:
 Iter   0:  RMS(Cart)=    0.0268710426 RMS(Int)=    0.0422369053
done
Storing new coordinates                 .... done
The predicted energy change is          ....    -0.001335873
Previously predicted energy change      ....    -0.007481469
Actually observed energy change         ....    -0.009213932
Ratio of predicted to observed change   ....     1.231567171
New trust radius                        ....     0.450000000

                                .--------------------.
          ----------------------|Geometry convergence|-------------------------
          Item                value                   Tolerance       Converged
          ---------------------------------------------------------------------
          Energy change      -0.0092139318            0.0000050000      NO
          RMS gradient        0.0106525205            0.0001000000      NO
          MAX gradient        0.0161900396            0.0003000000      NO
          RMS step            0.0423063014            0.0020000000      NO
          MAX step            0.0650042925            0.0040000000      NO
          -------------------------------------------------------------------------
          ........................................................
          Max(Bonds)      0.0253      Max(Angles)    3.72
          Max(Dihed)        0.00      Max(Improp)    0.00
          ---------------------------------------------------------------------

The optimization has not yet converged - more geometry cycles are needed


    ---------------------------------------------------------------------------
                         Redundant Internal Coordinates
                            (Angstroem and degrees)

        Definition                    Value    dE/dq     Step     New-Value
    ----------------------------------------------------------------------------
     1. B(O   1,O   0)                1.4187 -0.016190  0.0253    1.4440   
     2. B(H   2,O   0)                0.9649 -0.001326 -0.0007    0.9642   
     3. B(H   3,O   1)                0.9649 -0.001326 -0.0007    0.9642   
     4. A(O   1,O   0,H   2)          102.32  0.014409   -3.72     98.60   
     5. A(O   0,O   1,H   3)          102.32  0.014409   -3.72     98.60   
     6. D(H   3,O   1,O   0,H   2)    180.00  0.000000   -0.00    180.00   
    ----------------------------------------------------------------------------

Geometry step timings:
Preparation and reading OPT file:      0.000 s ( 3.846 %)
Internal coordinates            :      0.000 s ( 3.846 %)
B/P matrices and projection     :      0.000 s (20.414 %)
Hessian update/contruction      :      0.000 s (29.290 %)
Making the step                 :      0.000 s ( 9.467 %)
Converting the step to Cartesian:      0.000 s ( 4.438 %)
Storing new data                :      0.000 s ( 3.550 %)
Checking convergence            :      0.000 s ( 8.580 %)
Final printing                  :      0.000 s (15.976 %)
Total time                      :      0.000 s

Time for energy+gradient        :      4.215 s
Time for complete geometry iter :      4.226 s

         *************************************************************
         *                GEOMETRY OPTIMIZATION CYCLE   3            *
         *************************************************************
---------------------------------
CARTESIAN COORDINATES (ANGSTROEM)
---------------------------------
  O     -0.020293   -0.049756   -0.000000
  O      1.420293    0.049756   -0.000000
  H     -0.229818    0.891382    0.000000
  H      1.629818   -0.891382    0.000000

----------------------------
CARTESIAN COORDINATES (A.U.)
----------------------------
  NO LB      ZA    FRAG     MASS         X           Y           Z
   0 O     8.0000    0    15.999   -0.038348   -0.094026   -0.000000
   1 O     8.0000    0    15.999    2.683964    0.094026   -0.000000
   2 H     1.0000    0     1.008   -0.434294    1.684467    0.000000
   3 H     1.0000    0     1.008    3.079910   -1.684467    0.000000

--------------------------------
INTERNAL COORDINATES (ANGSTROEM)
--------------------------------
 O      0   0   0     0.000000000000     0.00000000     0.00000000
 O      1   0   0     1.444018498347     0.00000000     0.00000000
 H      1   2   0     0.964179022748    98.59948785     0.00000000
 H      2   1   3     0.964179022746    98.59948785   180.00000000

---------------------------
INTERNAL COORDINATES (A.U.)
---------------------------
 O      0   0   0     0.000000000000     0.00000000     0.00000000
 O      1   0   0     2.728799494192     0.00000000     0.00000000
 H      1   2   0     1.822034297065    98.59948785     0.00000000
 H      2   1   3     1.822034297062    98.59948785   180.00000000

[...]
      f-1     :     0.000806
      f+2     :     0.000587
      f-2     :     0.000375
      f+3     :     0.000789
      f-3     :     0.000802
  2 H s       :     0.597826  s :     0.597826
      pz      :     0.016663  p :     0.045630
      px      :     0.008948
      py      :     0.020019
  3 H s       :     0.597826  s :     0.597826
      pz      :     0.016663  p :     0.045630
      px      :     0.008948
      py      :     0.020019


                     *******************************
                     * LOEWDIN POPULATION ANALYSIS *
                     *******************************

----------------------
LOEWDIN ATOMIC CHARGES
----------------------
   0 O :   -0.168577
   1 O :   -0.168577
   2 H :    0.168577
   3 H :    0.168577

-------------------------------
LOEWDIN REDUCED ORBITAL CHARGES
-------------------------------
  0 O s       :     3.537349  s :     3.537349
      pz      :     1.920997  p :     4.505589
      px      :     1.083373
      py      :     1.501218
      dz2     :     0.018300  d :     0.116270
      dxz     :     0.024179
      dyz     :     0.005719
      dx2y2   :     0.045555
      dxy     :     0.022518
      f0      :     0.000958  f :     0.009370
      f+1     :     0.001548
      f-1     :     0.000937
      f+2     :     0.001258
      f-2     :     0.000375
      f+3     :     0.002171
      f-3     :     0.002124
  1 O s       :     3.537349  s :     3.537349
      pz      :     1.920997  p :     4.505589
      px      :     1.083373
      py      :     1.501218
      dz2     :     0.018300  d :     0.116270
      dxz     :     0.024179
      dyz     :     0.005719
      dx2y2   :     0.045555
      dxy     :     0.022518
      f0      :     0.000958  f :     0.009370
      f+1     :     0.001548
      f-1     :     0.000937
      f+2     :     0.001258
      f-2     :     0.000375
      f+3     :     0.002171
      f-3     :     0.002124
  2 H s       :     0.671187  s :     0.671187
      pz      :     0.046700  p :     0.160235
      px      :     0.023638
      py      :     0.089897
  3 H s       :     0.671187  s :     0.671187
      pz      :     0.046700  p :     0.160235
      px      :     0.023638
      py      :     0.089897


                      *****************************
                      * MAYER POPULATION ANALYSIS *
                      *****************************

  NA   - Mulliken gross atomic population
  ZA   - Total nuclear charge
  QA   - Mulliken gross atomic charge
  VA   - Mayer's total valence
  BVA  - Mayer's bonded valence
  FA   - Mayer's free valence

  ATOM       NA         ZA         QA         VA         BVA        FA
  0 O      8.3565     8.0000    -0.3565     2.0326     1.6024     0.4302
  1 O      8.3565     8.0000    -0.3565     2.0326     1.6024     0.4302
  2 H      0.6435     1.0000     0.3565     0.8931     0.8452     0.0480
  3 H      0.6435     1.0000     0.3565     0.8931     0.8452     0.0480

  Mayer bond orders larger than 0.100000
B(  0-O ,  1-O ) :   0.7593 B(  0-O ,  2-H ) :   0.8419 B(  1-O ,  3-H ) :   0.8419 



                *******************************************
                * RELAXED MP2 DENSITY POPULATION ANALYSIS *
                *******************************************

------------------------------------------------------------------------------
                           ORCA POPULATION ANALYSIS
------------------------------------------------------------------------------
Input electron density              ... nadtlenek.pmp2re
BaseName (.gbw .S,...)              ... nadtlenek

                    ********************************
                    * MULLIKEN POPULATION ANALYSIS *
                    ********************************

-----------------------
MULLIKEN ATOMIC CHARGES
-----------------------
   0 O :   -0.345932
   1 O :   -0.345932
   2 H :    0.345932
   3 H :    0.345932
Sum of atomic charges:   -0.0000000

--------------------------------
MULLIKEN REDUCED ORBITAL CHARGES
--------------------------------
  0 O s       :     3.857428  s :     3.857428
      pz      :     1.961490  p :     4.421330
      px      :     1.000283
      py      :     1.459556
      dz2     :     0.010057  d :     0.062407
      dxz     :     0.012254
      dyz     :     0.006861
      dx2y2   :     0.021528
      dxy     :     0.011707
      f0      :     0.000601  f :     0.004768
      f+1     :     0.000874
      f-1     :     0.000798
      f+2     :     0.000587
      f-2     :     0.000374
      f+3     :     0.000764
      f-3     :     0.000769
  1 O s       :     3.857428  s :     3.857428
      pz      :     1.961490  p :     4.421330
      px      :     1.000283
      py      :     1.459556
      dz2     :     0.010057  d :     0.062407
      dxz     :     0.012254
      dyz     :     0.006861
      dx2y2   :     0.021528
      dxy     :     0.011707
      f0      :     0.000601  f :     0.004768
      f+1     :     0.000874
      f-1     :     0.000798
      f+2     :     0.000587
      f-2     :     0.000374
      f+3     :     0.000764
      f-3     :     0.000769
  2 H s       :     0.608226  s :     0.608226
      pz      :     0.018018  p :     0.045841
      px      :     0.008945
      py      :     0.018878
  3 H s       :     0.608226  s :     0.608226
      pz      :     0.018018  p :     0.045841
      px      :     0.008945
      py      :     0.018878


                     *******************************
                     * LOEWDIN POPULATION ANALYSIS *
                     *******************************

----------------------
LOEWDIN ATOMIC CHARGES
----------------------
   0 O :   -0.168064
   1 O :   -0.168064
   2 H :    0.168064
   3 H :    0.168064

-------------------------------
LOEWDIN REDUCED ORBITAL CHARGES
-------------------------------
  0 O s       :     3.544444  s :     3.544444
      pz      :     1.918152  p :     4.498559
      px      :     1.082900
      py      :     1.497507
      dz2     :     0.018139  d :     0.115666
      dxz     :     0.025381
      dyz     :     0.005780
      dx2y2   :     0.043598
      dxy     :     0.022769
      f0      :     0.000945  f :     0.009395
      f+1     :     0.001575
      f-1     :     0.000954
      f+2     :     0.001238
      f-2     :     0.000374
      f+3     :     0.002220
      f-3     :     0.002089
  1 O s       :     3.544444  s :     3.544444
      pz      :     1.918152  p :     4.498559
      px      :     1.082900
      py      :     1.497507
      dz2     :     0.018139  d :     0.115666
      dxz     :     0.025381
      dyz     :     0.005780
      dx2y2   :     0.043598
      dxy     :     0.022769
      f0      :     0.000945  f :     0.009395
      f+1     :     0.001575
      f-1     :     0.000954
      f+2     :     0.001238
      f-2     :     0.000374
      f+3     :     0.002220
      f-3     :     0.002089
  2 H s       :     0.672315  s :     0.672315
      pz      :     0.048316  p :     0.159621
      px      :     0.022803
      py      :     0.088502
  3 H s       :     0.672315  s :     0.672315
      pz      :     0.048316  p :     0.159621
      px      :     0.022803
      py      :     0.088502


                      *****************************
                      * MAYER POPULATION ANALYSIS *
                      *****************************

  NA   - Mulliken gross atomic population
  ZA   - Total nuclear charge
  QA   - Mulliken gross atomic charge
  VA   - Mayer's total valence
  BVA  - Mayer's bonded valence
  FA   - Mayer's free valence

  ATOM       NA         ZA         QA         VA         BVA        FA
  0 O      8.3459     8.0000    -0.3459     2.0534     1.6313     0.4221
  1 O      8.3459     8.0000    -0.3459     2.0534     1.6313     0.4221
  2 H      0.6541     1.0000     0.3459     0.9002     0.8524     0.0478
  3 H      0.6541     1.0000     0.3459     0.9002     0.8524     0.0478

  Mayer bond orders larger than 0.100000
B(  0-O ,  1-O ) :   0.7811 B(  0-O ,  2-H ) :   0.8475 B(  1-O ,  3-H ) :   0.8475 



----------------------------------
MP2 DERIVATIVE INTEGRAL GENERATION
----------------------------------

Input SCF Electron Density              ... nadtlenek.scfp
Input Correlated Electron Density       ... nadtlenek.pmp2re
Input Energy Weighted Density           ... nadtlenek.wmp2.tmp
Input Wavefunction Amplitudes           ... nadtlenek.mp2tsaa.tmp

Nuclear repulsion gradient              ... done (  0.0 sec)
HCore & Overlap gradient  (SHARK)       ... done (  0.0 sec)
Analytic two-electron gradient terms    ... 
  Batch handling in the gradient evaluation:
  General contraction                   ... not used
  Memory available                      ... 4091.8 MB
  Memory per occupied orbital in Q2     ...    0.3 MB
  Memory per occupied orbital in Q3     ...    0.0 MB
  Total memory requirement per |i>      ...    0.3 MB
  Number of orbitals treated per batch  ...      7
  Number of batches to be done          ...      1
done (  1.0 sec)

---------------------------------------
MP2 TOTAL ENERGY:     -151.327625208 Eh
---------------------------------------

The final MP2 gradient
  0:   0.00000114   0.00000032   0.00000000
  1:  -0.00000114  -0.00000032   0.00000000
  2:   0.00000066  -0.00000146  -0.00000000
  3:  -0.00000066   0.00000146  -0.00000000

-----------------------------------
NORM OF THE MP2 GRADIENT:  0.000003
-----------------------------------

Maximum memory used throughout the entire MP2-calculation: 30.0 MB

-------------------------   --------------------
FINAL SINGLE POINT ENERGY      -151.327625208307
-------------------------   --------------------

                                *** OPTIMIZATION RUN DONE ***


------------------------------------------------------------------------------
                              ORCA PROPERTY CALCULATIONS
------------------------------------------------------------------------------

GBWName                                 ... nadtlenek.gbw
Number of atoms                         ...      4
Number of basis functions               ...     74
Max core memory                         ...   4096 MB

Electric properties:
Dipole moment                           ... YES
Quadrupole moment                       ...  NO
Static polarizability (Dipole/Dipole)   ...  NO
Static polarizability (Dipole/Quad.)    ...  NO
Static polarizability (Quad./Quad.)     ...  NO
Static polarizability (Velocity)        ...  NO
Static hyperpolarizability              ...  NO

Atomic electric properties:
Dipole moment                           ...  NO
Quadrupole moment                       ...  NO
Static polarizability                   ...  NO

Choice of electric origin               ... Center of mass
Position of electric origin             ...     1.322808     0.000000     0.000000

General magnetic properties:
Magnetizability                         ...  NO

EPR properties:
g-Tensor (aka g-matrix)                 ...  NO
Zero-Field splitting spin-orbit         ...  NO
Zero-field splitting spin-spin          ...  NO
Hyperfine couplings                     ...  NO (   0 nuclei)
Quadrupole couplings                    ...  NO (   0 nuclei)
Contact density                         ...  NO (   0 nuclei)

NMR properties:
Chemical shifts                         ...  NO (   0 nuclei)
Spin-rotation constants                 ...  NO (   0 nuclei)
Spin-spin couplings                     ...  NO (   0 nuclei,    0 pairs)

Choice of magnetic origin               ... GIAO
Position of magnetic origin             ...     0.000000     0.000000     0.000000

Properties with geometric perturbations:
SCF Hessian                             ...  NO
IR spectrum                             ...  NO
VCD spectrum                            ...  NO
X-ray spectroscopy properties:
SCF XES/XAS/RIXS spectra                ...  NO

SCF SOC stabilization energy            ...  NO
Diagonal Born-Oppenheimer correction    ...  NO

-------------
DIPOLE MOMENT
-------------

Method             : SCF
Type of density    : Electron Density
Multiplicity       :   1
Irrep              :   0
Energy             :  -150.8385694708883022 Eh
Basis              : AO
                                X                 Y                 Z
Electronic contribution:      0.000000000       0.000000000       0.000000000
Nuclear contribution   :     -0.000000000      -0.000000000      -0.000000000
                        -----------------------------------------
Total Dipole Moment    :     -0.000000000      -0.000000000      -0.000000000
                        -----------------------------------------
Magnitude (a.u.)       :      0.000000000
Magnitude (Debye)      :      0.000000001



--------------------
Rotational spectrum 
--------------------
 
Rotational constants in cm-1:             9.986875             0.899182             0.824910 
Rotational constants in MHz :        299398.970055         26956.791624         24730.176684 

Dipole components along the rotational axes: 
x,y,z [a.u.] :    -0.000000    -0.000000    -0.000000 
x,y,z [Debye]:    -0.000000    -0.000000    -0.000000 

 

-------------
DIPOLE MOMENT
-------------

Method             : MP2
Type of density    : Electron Density
Multiplicity       :   1
Level              : Unrelaxed density
Irrep              :   0
Energy             :     0.0000000000000000 Eh
Basis              : AO
                                X                 Y                 Z
Electronic contribution:      0.000000000       0.000000000       0.000000000
Nuclear contribution   :     -0.000000000      -0.000000000      -0.000000000
                        -----------------------------------------
Total Dipole Moment    :     -0.000000000      -0.000000000      -0.000000000
                        -----------------------------------------
Magnitude (a.u.)       :      0.000000000
Magnitude (Debye)      :      0.000000001



--------------------
Rotational spectrum 
--------------------
 
Rotational constants in cm-1:             9.986875             0.899182             0.824910 
Rotational constants in MHz :        299398.970055         26956.791624         24730.176684 

Dipole components along the rotational axes: 
x,y,z [a.u.] :    -0.000000    -0.000000    -0.000000 
x,y,z [Debye]:    -0.000000    -0.000000    -0.000000 

 

-------------
DIPOLE MOMENT
-------------

Method             : MP2
Type of density    : Electron Density
Multiplicity       :   1
Level              : Relaxed density
Irrep              :   0
Energy             :     0.0000000000000000 Eh
Basis              : AO
                                X                 Y                 Z
Electronic contribution:      0.000000000       0.000000000       0.000000000
Nuclear contribution   :     -0.000000000      -0.000000000      -0.000000000
                        -----------------------------------------
Total Dipole Moment    :     -0.000000000      -0.000000000      -0.000000000
                        -----------------------------------------
Magnitude (a.u.)       :      0.000000000
Magnitude (Debye)      :      0.000000001



--------------------
Rotational spectrum 
--------------------
 
Rotational constants in cm-1:             9.986875             0.899182             0.824910 
Rotational constants in MHz :        299398.970055         26956.791624         24730.176684 

Dipole components along the rotational axes: 
x,y,z [a.u.] :    -0.000000    -0.000000    -0.000000 
x,y,z [Debye]:    -0.000000    -0.000000    -0.000000 

 

Dipole moment calculation done in   0.0 sec 

Maximum memory used throughout the entire PROP-calculation: 3.7 MB

--------------------------------
SUGGESTED CITATIONS FOR THIS RUN
--------------------------------

Below you find a list of papers that are relevant to this ORCA run
We neither can nor want to force you to cite these papers, but we appreciate if you do
You receive ORCA, which is the product of decades of hard work by many enthusiastic individuals, for free
The only thing we kindly ask in return is that you cite our papers,
We deeply appreciate it, if you show your appreciation for ORCA by not just citing the generic ORCA reference.

Please note that relegating all ORCA citations to the supporting information does *not* help us.
SI sections are not indexed - citations you put there will not count into any citation statistics
But we need these citations in order to attract the funding resources that allow us to do what we are doing

Therefore, if you are a happy ORCA user, please consider citing a few of the papers listed below in the main body of your paper

In addition to the list printed below, the program has created the file nadtlenek.bibtex that contains the list in bibtex format
You can import this file easily into all common literature databanks and citation aid programs

It goes without saying that in many instances, there are alternative algorithms to achieve similar
results as the ones you have gotten from ORCA. It is, of course, also the case that in some instances
ORCA just re-implements algorithms worked out by others. We are fully aware of that and we are also
fully appreciative of our colleagues work. Hence this citation list should not be read as indicating
that the listed papers, which are focused on our own work, are the only ones worth citing. It simply
meant to make it easier for users to cite ORCA specific papers. It is not a substitute for doing your
own literature research and citing the relevant literature in a scientifically appropriate manner.

List of essential papers. We consider these as the minimum necessary citations

  1. Neese, F.
     Software update: the ORCA program system, version 6.0
     WIRES Comput. Molec. Sci. 2025 15(1), e70019
     doi.org/10.1002/wcms.70019

List of papers to cite with high priority. The work reported in these papers was absolutely
necessary for this run to complete.
Our perspective: the developers of density functionals and basis sets usually get cited in chemistry papers
Good! But without the algorithms to do something with them, the functionals or basis sets would not do anything.
Hence, in our opinion, the algorithm design and method developments papers are equally worthy of getting cited

  1. Neese, F.
     The SHARK Integral Generation and Digestion System
     J. Comp. Chem. 2022 44(3), 381
     doi.org/10.1002/jcc.26942

List of suggested additional citations. These are papers that are important in the 'surrounding' of 
of this run, or papers that preceded the highly important papers. If you like your results we are grateful for a citation.

  1. Neese, F.
     The ORCA program system
     WIRES Comput. Molec. Sci. 2012 2(1), 73-78
     doi.org/10.1002/wcms.81
  2. Neese, F.
     Software update: the ORCA program system, version 4.0
     WIRES Comput. Molec. Sci. 2018 8(1), 1-6
     doi.org/10.1002/wcms.1327
  3. Neese, F.; Wennmohs, F.; Becker, U.; Riplinger, C.
     The ORCA quantum chemistry program package
     J. Chem. Phys. 2020 152(22), 224108
     doi.org/10.1063/5.0004608
  4. Neese, F.
     Software update: The ORCA program system—Version 5.0
     WIRES Comput. Molec. Sci. 2022 12(1), e1606
     doi.org/10.1002/wcms.1606

List of optional additional citations

  1. Neese, F.
     Approximate second-order SCF convergence for spin unrestricted wavefunctions
     Chem. Phys. Lett. 2000 325(1-3), 93-98
     doi.org/10.1016/s0009-2614(00)00662-x

Timings for individual modules:

Sum of individual times          ...       22.324 sec (=   0.372 min)
SCF iterations                   ...        7.472 sec (=   0.125 min)  33.5 %
Property calculations            ...        0.057 sec (=   0.001 min)   0.3 %
MP2 module                       ...       16.201 sec (=   0.270 min)  72.6 %
Geometry relaxation              ...        0.010 sec (=   0.000 min)   0.0 %
                             ****ORCA TERMINATED NORMALLY****
TOTAL RUN TIME: 0 days 0 hours 0 minutes 22 seconds 508 msec
