
                                 *****************
                                 * O   R   C   A *
                                 *****************

                                            #,                                       
                                            ###                                      
                                            ####                                     
                                            #####                                    
                                            ######                                   
                                           ########,                                 
                                     ,,################,,,,,                         
                               ,,#################################,,                 
                          ,,##########################################,,             
                       ,#########################################, ''#####,          
                    ,#############################################,,   '####,        
                  ,##################################################,,,,####,       
                ,###########''''           ''''###############################       
              ,#####''   ,,,,##########,,,,          '''####'''          '####       
            ,##' ,,,,###########################,,,                        '##       
           ' ,,###''''                  '''############,,,                           
         ,,##''                                '''############,,,,        ,,,,,,###''
      ,#''                                            '''#######################'''  
     '                                                          ''''####''''         
             ,#######,   #######,   ,#######,      ##                                
            ,#'     '#,  ##    ##  ,#'     '#,    #''#        ,####,    ,#,          
            ##       ##  ##   ,#'  ##            #'  '#       #'       ,# #          
            ##       ##  #######   ##           ,######,      #####,      #          
            '#,     ,#'  ##    ##  '#,     ,#' ,#      #,     #,   #      #          
             '#######'   ##     ##  '#######'  #'      '#     '####' #    #          



                #########################################################
                #                        -***-                          #
                #          Department of theory and spectroscopy        #
                #                                                       #
                #                      Frank Neese                      #
                #                                                       #
                #     Directorship, Architecture, Infrastructure        #
                #                    SHARK, DRIVERS                     #
                #        Core code/Algorithms in most modules           #
                #                                                       #
                #        Max Planck Institute fuer Kohlenforschung      #
                #                Kaiser Wilhelm Platz 1                 #
                #                 D-45470 Muelheim/Ruhr                 #
                #                      Germany                          #
                #                                                       #
                #                  All rights reserved                  #
                #                        -***-                          #
                #########################################################


                         Program Version 6.1.1  -  RELEASE   -
                                (GIT: $487d211c$)
                          ($2025-11-21 10:33:24 +0100$)


 With contributions from (in alphabetic order):
[Max-Planck-Institut fuer Kohlenforschung]                               
  Daniel Aravena         : Magnetic Suceptibility                        
  Michael Atanasov       : Ab Initio Ligand Field Theory (pilot matlab implementation)
  Alexander A. Auer      : GIAO ZORA, VPT2 properties, NMR spectrum      
  Ute Becker             : All parallelization in ORCA, NUMFREQ, NUMCALC 
  Giovanni Bistoni       : ED, misc. LED, open-shell LED, HFLD           
  Dmytro Bykov           : pre 5.0 version of the SCF Hessian            
  Marcos Casanova-Páez   : Triplet and SCS-CIS(D). UHF-(DLPNO)-IP/EA/STEOM-CCSD. UHF-CVS-IP/STEOM-CCSD   
  Vijay G. Chilkuri      : MRCI spin determinant printing, contributions to CSF-ICE 
  Pauline Colinet        : FMM embedding                                 
  Dipayan Datta          : RHF DLPNO-CCSD density                        
  Achintya Kumar Dutta   : EOM-CC, STEOM-CC                              
  Nicolas Foglia         : Exact transition moments, OPA infrastructure, MCD improvements    
  Dmitry Ganyushin       : Spin-Orbit,Spin-Spin,Magnetic field MRCI      
  Miquel Garcia-Rates    : C-PCM and meta-GGA Hessian, CCSD/C-PCM, Gaussian charge scheme 
  Tiago L. C. Gouveia    : GS-ROHF, GS-ROCIS                             
  Yang Guo               : DLPNO-NEVPT2, F12-NEVPT2, CIM, IAO-localization        
  Andreas Hansen         : Spin unrestricted coupled pair/coupled cluster methods 
  Ingolf Harden          : AUTO-CI MPn and infrastructure                
  Benjamin Helmich-Paris : MC-RPA, TRAH-(SCF,CASSCF), AVAS, COSX integrals, SCF dyn. polar., MC-PDFT, srDFT 
  Lee Huntington         : MR-EOM, pCC                                   
  Robert Izsak           : Overlap fitted RIJCOSX, COSX-SCS-MP3, EOM     
  Riya Kayal             : Wick's Theorem for AUTO-CI, AUTO-CI UHF-CCSDT 
  Emily Kempfer          : AUTO-CI RHF CISDT and CCSDT, approximate NEVPT4
  Christian Kollmar      : KDIIS, OOCD, Brueckner-CCSD(T), CCSD density, CASPT2, CASPT2-K, improved NEVPT2 
  Axel Koslowski         : Symmetry handling                             
  Simone Kossmann        : meta-GGA functionals, TD-DFT gradient, OOMP2, (MP2 Hessian; deprecated post 5.0) 
  Lucas Lang             : DCDCAS, Hyperfine gauge corrections, ICE-SOC+SSC
  Marvin Lechner         : AUTO-CI (C++ implementation), FIC-MRCC        
  Spencer Leger          : CASSCF response                               
  Dagmar Lenk            : GEPOL surface, SMD, ORCA-2-JSON               
  Dimitrios Liakos       : Extrapolation schemes; Compound Job, Property file
  Dimitrios Manganas     : Further ROCIS development; embedding schemes. LFT, Crystal Embedding 
  Dimitrios Pantazis     : SARC Basis sets                               
  Anastasios Papadopoulos: AUTO-CI, single reference methods and gradients 
  Taras Petrenko         : pre 6.0 DFT Hessian and TD-DFT gradient,  ECA, NRVS 
  Petra Pikulova         : Analytic Raman intensities                    
  Peter Pinski           : DLPNO-MP2, DLPNO-MP2 Gradient                 
  Shashank Vittal Rao    : ES-AILFT, MagRelax                            
  Christoph Reimann      : Effective Core Potentials                     
  Marius Retegan         : Local ZFS, SOC                                
  Christoph Riplinger    : Optimizer, TS searches, QM/MM, DLPNO-CCSD(T), (RO)-DLPNO pert. Triples 
  Michael Roemelt        : Original ROCIS implementation, recursive CI coupling coefficients
  Masaaki Saitow         : Open-shell DLPNO-CCSD energy and density      
  Barbara Sandhoefer     : DKH picture change effects                    
  Yorick L. A. Schmerwitz: GMF and freeze-and-release deltaSCF, NEB S-IDPP initial path                    
  Kantharuban Sivalingam : CASSCF convergence/infrastructure, NEVPT2, NEVPT3, NEVPT4(SD), FIC-MRCI and CEPA variants
  Bernardo de Souza      : ESD, SOC TD-DFT                               
  Georgi L. Stoychev     : AutoAux, RI-MP2 NMR, DLPNO-MP2 response, X2C  
  Van Anh Tran           : RI-MP2 g-tensors                              
  Willem Van den Heuvel  : Paramagnetic NMR                              
  Zikuan Wang            : NOTCH, Electric field optimization            
  Frank Wennmohs         : Technical directorship and infrastructure     
  Hang Xu                : AUTO-CI-Response properties                   
                                                                         
[FACCTs GmbH]                                                            
  Markus Bursch, Nicolas Foglia, Miquel Garcia-Rates, Ingolf Harden, Hagen Neugebauer, Anastasios Papadopoulos, 
  Christoph Riplinger, Bernardo de Souza, Georgi L. Stoychev                                                    
                                                                 
  APM, various basis sets, CI-OPT, improved COSX, DLPNO-Multilevel,           
  DOCKER, DRACO, updates on ESD, Fragmentator, GOAT, IRC, LR-CPCM, L-BFGS, MBIS, meta-GGA TD-DFT gradient, ML-optimized integration grids, 
  MM, NACMEs, nearIR, NEB, NEB-TS, NL-DFT gradient (VV10), 2- and 3-layer-ONIOM, interface openCOSMO-RS, QMMM,   
  Crystal-QMMM, RESP, rigid body optimization, SF, symmetry and pop. for TD-DFT, various functionals, SOLVATOR                                   
                                                                         
[Other institutions]                                                     
  V. Asgeirsson          : NEB                                           
  Christoph Bannwarth    : sTDA-DFT, sTD-DFT, PBEh-3c, B97-3c, D3        
  Giovanni Bistoni       : ETS/NOCV, ADLD/ADEX, COVALED                  
  Martin Brehm           : Molecular dynamics                            
  Ronald Cardenas        : ETS/NOCV                                      
  Martina Colucci        : COVALED                                       
  Sebastian Ehlert       : rSCAN, r2SCAN, r2SCAN-3c, D4, dhf basis sets  
  Marvin Friede          : D4 for Fr, Ra, Ac-Lr                          
  Lars Goerigk           : TD-DFT with DH, B97 family of functionals     
  Stefan Grimme          : VdW corrections, initial TS optimization, DFT functionals, gCP, sTDA/sTD-DF 
  Waldemar Hujo          : DFT-NL                                        
  H. Jonsson             : NEB                                           
  Holger Kruse           : gCP                                           
  Marcel Mueller         : wB97X-3c, vDZP basis set                      
  Hagen Neugebauer       : wr2SCAN, Native XTB                           
  Gianluca Regni         : ADLD/ADEX                                     
  Tobias Risthaus        : pre 6.0 range-separated hybrid DFT and stability analysis
  Lukas Wittmann         : regularized MP2, r2SCAN double-hybrids, wr2SCAN        
                                                                         
We gratefully acknowledge several colleagues who have allowed us to      
interface, adapt or use parts of their codes:                            
  Ed Valeev, F. Pavosevic, A. Kumar             : LibInt (2-el integral package), F12 methods 
  Garnet Chan, S. Sharma, J. Yang, R. Olivares  : DMRG                   
  Ulf Ekstrom                                   : XCFun DFT Library      
  Mihaly Kallay                                 : mrcc  (arbitrary order and MRCC methods)
  Frank Weinhold                                : gennbo (NPA and NBO analysis)           
  Simon Mueller                                 : openCOSMO-RS                            
  Christopher J. Cramer and Donald G. Truhlar   : smd solvation model                     
  S Lehtola, MJT Oliveira, MAL Marques          : LibXC Library                           
  Liviu Ungur et al                             : ANISO software                          


 Your calculation uses the libint2 library for the computation of 2-el integrals
 For citations please refer to: http://libint.valeyev.net

 Your ORCA version has been built with support for libXC version: 7.0.0
 For citations please refer to: https://libxc.gitlab.io

 This ORCA versions uses:
   CBLAS   interface :  Fast vector & matrix operations
   LAPACKE interface :  Fast linear algebra routines
   SCALAPACK package :  Parallel linear algebra routines
   Shared memory     :  Shared parallel matrices
   BLAS/LAPACK       :  OpenBLAS 0.3.29  USE64BITINT DYNAMIC_ARCH NO_AFFINITY Haswell SINGLE_THREADED
        Core in use  :  Haswell
   Copyright (c) 2011-2014, The OpenBLAS Project


  ***********************************
  * Starting time: Tue Jan 20 18:59:10 2026
  * Host name:     Maks
  * Process ID:    2655
  * Working dir.:  /home/maksy/Chemia_obliczeniowa/Cwiczenia5
  ***********************************

================================================================================

----- Orbital basis set information -----
Your calculation utilizes the basis: def2-TZVP
   F. Weigend and R. Ahlrichs, Phys. Chem. Chem. Phys. 7, 3297 (2005).

================================================================================
                                        WARNINGS
                       Please study these warnings very carefully!
================================================================================


WARNING: your system is open-shell and RHF/RKS was chosen
  ===> : WILL SWITCH to UHF/UKS


WARNING: The frozen-core approximation for MP2-gradient calculations is turned on by default.

WARNING: Geometry Optimization
  ===> : Switching off AutoStart
         For restart on a previous wavefunction, please use MOREAD

WARNING: Post HF methods need fully converged wavefunctions
  ===> : Setting SCFConvForced true
         You can overwrite this default with %scf ConvForced false 


================================================================================
                                       INPUT FILE
================================================================================
NAME = rodnik.inp
|  1> ! MP2 def2-TZVP Opt
|  2> * xyz 0 2
|  3>  O         0.000000        0.000000        0.000000
|  4>  H         1.000000        0.000000        0.000000
|  5> *
|  6> 
|  7>                          ****END OF INPUT****
================================================================================

                       *****************************
                       * Geometry Optimization Run *
                       *****************************

Geometry optimization settings:
Update method            Update   .... BFGS
Choice of coordinates    CoordSys .... (2022) Redundant Internals
Initial Hessian          InHess   .... Almloef's Model
Max. no of cycles        MaxIter  .... 50

Convergence Tolerances:
Energy Change            TolE     ....  5.0000e-06 Eh
Max. Gradient            TolMAXG  ....  3.0000e-04 Eh/bohr
RMS Gradient             TolRMSG  ....  1.0000e-04 Eh/bohr
Max. Displacement        TolMAXD  ....  4.0000e-03 bohr
RMS Displacement         TolRMSD  ....  2.0000e-03 bohr
Strict Convergence                .... False

------------------------------------------------------------------------------
                        ORCA OPTIMIZATION COORDINATE SETUP
------------------------------------------------------------------------------

The optimization will be done in redundant internal coordinates (2022)
Making redundant internal coordinates   ...  (2022 redundants) done
Evaluating the initial hessian          ...  (Almloef) done
Evaluating the coordinates              ...  done
Calculating the B-matrix                .... done
Calculating the G-matrix                .... done
The number of degrees of freedom        ....    1

    -----------------------------------------------------------------
                    Redundant Internal Coordinates


    -----------------------------------------------------------------
         Definition                    Initial Value    Approx d2E/dq
    -----------------------------------------------------------------
      1. B(H   1,O   0)                  1.0000         0.448900   
    -----------------------------------------------------------------

Number of atoms                         .... 2
Number of degrees of freedom            .... 1


         *************************************************************
         *                GEOMETRY OPTIMIZATION CYCLE   1            *
         *************************************************************
---------------------------------
CARTESIAN COORDINATES (ANGSTROEM)
---------------------------------
  O      0.000000    0.000000    0.000000
  H      1.000000    0.000000    0.000000

----------------------------
CARTESIAN COORDINATES (A.U.)
----------------------------
  NO LB      ZA    FRAG     MASS         X           Y           Z
   0 O     8.0000    0    15.999    0.000000    0.000000    0.000000
   1 H     1.0000    0     1.008    1.889726    0.000000    0.000000

--------------------------------
INTERNAL COORDINATES (ANGSTROEM)
--------------------------------
 O      0   0   0     0.000000000000     0.00000000     0.00000000
 H      1   0   0     1.000000000000     0.00000000     0.00000000

---------------------------
INTERNAL COORDINATES (A.U.)
---------------------------
 O      0   0   0     0.000000000000     0.00000000     0.00000000
 H      1   0   0     1.889726133921     0.00000000     0.00000000

---------------------
BASIS SET INFORMATION
---------------------
There are 2 groups of distinct atoms

 Group   1 Type O   : 11s6p2d1f contracted to 5s3p2d1f pattern {62111/411/11/1}
 Group   2 Type H   : 5s1p contracted to 3s1p pattern {311/1}

Atom   0O    basis set group =>   1
Atom   1H    basis set group =>   2
------------------------------------------------------------------------------
                             ORCA STARTUP CALCULATIONS
------------------------------------------------------------------------------
------------------------------------------------------------------------------
                   ___                                                        
                  /   \      - P O W E R E D   B Y -                         
                 /     \                                                     
                 |  |  |   _    _      __       _____    __    __             
                 |  |  |  | |  | |    /  \     |  _  \  |  |  /  |          
                  \  \/   | |  | |   /    \    | | | |  |  | /  /          
                 / \  \   | |__| |  /  /\  \   | |_| |  |  |/  /          
                |  |  |   |  __  | /  /__\  \  |    /   |      \           
                |  |  |   | |  | | |   __   |  |    \   |  |\   \          
                \     /   | |  | | |  |  |  |  | |\  \  |  | \   \       
                 \___/    |_|  |_| |__|  |__|  |_| \__\ |__|  \__/        
                                                                              
                      - O R C A' S   B I G   F R I E N D -                    
                                      &                                       
                       - I N T E G R A L  F E E D E R -                       
                                                                              
 v1 FN, 2020, v2 2021, v3 2022-2024                                           
------------------------------------------------------------------------------


----------------------
SHARK INTEGRAL PACKAGE
----------------------

Number of atoms                             ...      2
Number of basis functions                   ...     37
Number of shells                            ...     15
Maximum angular momentum                    ...      3
Integral batch strategy                     ... SHARK/LIBINT Hybrid
RI-J (if used) integral strategy            ... SPLIT-RIJ (Revised 2003 algorithm where possible)
Printlevel                                  ...      1
Contraction scheme used                     ... SEGMENTED contraction
Prescreening option                         ... SCHWARTZ
   Thresh                                   ... 2.500e-11
   Tcut                                     ... 2.500e-12
   Tpresel                                  ... 2.500e-12 
Coulomb Range Separation                    ... NOT USED
Exchange Range Separation                   ... NOT USED
Multipole approximations                    ... NOT USED
Finite Nucleus Model                        ... NOT USED
CABS basis                                  ... NOT available
Auxiliary Coulomb fitting basis             ... NOT available
Auxiliary J/K fitting basis                 ... NOT available
Auxiliary Correlation fitting basis         ... NOT available
Auxiliary 'external' fitting basis          ... NOT available

Checking pre-screening integrals            ... done (  0.0 sec) Dimension = 15
   => SHARK Basis and OBASIS are compatible. Storing Pre-screening
Shell pair information
Shell pair cut-off parameter TPreSel        ...   2.5e-12
Total number of shell pairs                 ...       120
Shell pairs after pre-screening             ...       120
Total number of primitive shell pairs       ...       376
Primitive shell pairs kept                  ...       367
          la=0 lb=0:     36 shell pairs
          la=1 lb=0:     32 shell pairs
          la=1 lb=1:     10 shell pairs
          la=2 lb=0:     16 shell pairs
          la=2 lb=1:      8 shell pairs
          la=2 lb=2:      3 shell pairs
          la=3 lb=0:      8 shell pairs
          la=3 lb=1:      4 shell pairs
          la=3 lb=2:      2 shell pairs
          la=3 lb=3:      1 shell pairs

Checking whether 4 symmetric matrices of dimension 37 fit in memory
:Max Core in MB      =   4096.00
 MB in use           =      1.99
 MB left             =   4094.01
 MB needed           =      0.02
 Data fit in memory  = YES
Calculating Nuclear repulsion               ... done (  0.0 sec) ENN=      4.233417666400 Eh

Diagonalization of the overlap matrix:
Smallest eigenvalue                        ... 1.181e-02
Time for diagonalization                   ...    0.000 sec
Threshold for overlap eigenvalues          ... 1.000e-07
Number of eigenvalues below threshold      ... 0
Time for construction of square roots      ...    0.000 sec
Total time needed                          ...    0.001 sec

-------------------
DFT GRID GENERATION
-------------------

General Integration Accuracy     IntAcc      ... 4.388
Radial Grid Type                 RadialGrid  ... OptM3 with GC (2021)
Angular Grid (max. ang.)         AngularGrid ... 4 (Lebedev-302)
Angular grid pruning method      GridPruning ... 4 (adaptive)
Weight generation scheme         WeightScheme... mBecke (2022)
Basis function cutoff            BFCut       ... 1.0000e-11
Integration weight cutoff        WCut        ... 1.0000e-14
Partially contracted basis set               ... off
Rotationally invariant grid construction     ... off
Angular grids for H and He will be reduced by one unit

Total number of grid points                  ...     9454
Total number of batches                      ...      149
Average number of points per batch           ...       63
Average number of grid points per atom       ...     4727
Grids setup in   0.0 sec
Initializing property integral containers    ... done (  0.0 sec)

SHARK setup successfully completed in   0.1 seconds

Maximum memory used throughout the entire STARTUP-calculation: 12.5 MB
-------------------------------------------------------------------------------
                                 ORCA GUESS
                   Start orbitals & Density for SCF / CASSCF
-------------------------------------------------------------------------------

------------
SCF SETTINGS
------------
Hamiltonian:
 Ab initio Hamiltonian  Method          .... Hartree-Fock(GTOs)


General Settings:
 Integral files         IntName         .... rodnik
 Hartree-Fock type      HFTyp           .... UHF
 Total Charge           Charge          ....    0
 Multiplicity           Mult            ....    2
 Number of Electrons    NEL             ....    9
 Basis Dimension        Dim             ....   37
 Nuclear Repulsion      ENuc            ....      4.2334176664 Eh

Convergence Acceleration:
 AO-DIIS                CNVDIIS         .... on
   Start iteration      DIISMaxIt       ....    12
   Startup error        DIISStart       ....  0.200000
   # of expansion vecs  DIISMaxEq       ....     5
   Bias factor          DIISBfac        ....   1.050
   Max. coefficient     DIISMaxC        ....  10.000
 MO-DIIS                CNVKDIIS        .... off
 Trust-Rad. Augm. Hess. CNVTRAH         .... auto
   Auto Start mean grad. ratio tolernc. ....  1.125000
   Auto Start start iteration           ....    50
   Auto Start num. interpolation iter.  ....    10
   Max. Number of Micro iterations      ....    24
   Max. Number of Macro iterations      .... Maxiter - #DIIS iter
   Number of Davidson start vectors     ....     2
   Converg. threshold    (grad. norm)   ....   1.000e-05
   Grad. Scal. Fac. for Micro threshold ....   0.100
   Minimum threshold for Micro iter.    ....   1.000e-02
   NR start threshold (gradient norm)   ....   1.000e-04
   Initial trust radius                 ....   0.400
   Minimum AH scaling param. (alpha)    ....   1.000
   Maximum AH scaling param. (alpha)    .... 1000.000
   Quad. conv. algorithm                .... NR
   White noise on init. David. guess    .... on
   Maximum white noise                  ....   0.010
   Pseudo random numbers                .... off
   Inactive MOs                         .... canonical
   Orbital update algorithm             .... Taylor
   Preconditioner                       .... Diag
   Full preconditioner red. dimension   ....   250
 SOSCF                 CNVSOSCF           .... on
   Start iteration     SOSCFMaxIt         ....   150
   Startup grad/error  SOSCFStart         ....  0.003300
   Hessian update      SOSCFHessUp        .... L-BFGS
   Autom. constraints  SOSCFAutoConstrain .... off
 Level Shifting         CNVShift        .... on
   Level shift para.    LevelShift      ....    0.2500
   Turn off err/grad.   ShiftErr        ....    0.0010
 Zerner damping         CNVZerner       .... off
 Static damping         CNVDamp         .... on
   Fraction old density DampFac         ....    0.7000
   Max. Damping (<1)    DampMax         ....    0.9800
   Min. Damping (>=0)   DampMin         ....    0.0000
   Turn off err/grad.   DampErr         ....    0.1000

SCF Procedure:
 Maximum # iterations   MaxIter         ....   125
 SCF integral mode      SCFMode         .... Direct
   Integral package                     .... SHARK and LIBINT hybrid scheme
 Reset frequency        DirectResetFreq ....    20
 Integral Threshold     Thresh          ....  2.500e-11 Eh
 Primitive CutOff       TCut            ....  2.500e-12 Eh

Convergence Tolerance:
 Convergence Check Mode ConvCheckMode   .... Total+1el-Energy
 Convergence forced     ConvForced      .... 1
 Energy Change          TolE            ....  1.000e-08 Eh
 1-El. energy change                    ....  1.000e-05 Eh
 Orbital Gradient       TolG            ....  1.000e-05
 Orbital Rotation angle TolX            ....  1.000e-05
 DIIS Error             TolErr          ....  5.000e-07

------------------------------
INITIAL GUESS: MODEL POTENTIAL
------------------------------
Loading Hartree-Fock densities                     ... done
Calculating cut-offs                               ... done
Initializing the effective Hamiltonian             ... done
Setting up the integral package (SHARK)            ... done
Starting the Coulomb interaction                   ... done (   0.0 sec)
Making the grid                                    ... done (   0.0 sec)
Mapping shells                                     ... done
Starting the XC term evaluation                    ... done (   0.0 sec)
Transforming the Hamiltonian                       ... done (   0.0 sec)
Diagonalizing the Hamiltonian                      ... done (   0.0 sec)
Back transforming the eigenvectors                 ... done (   0.0 sec)
Now organizing SCF variables                       ... done
                      ------------------
                      INITIAL GUESS DONE (   0.0 sec)
                      ------------------
             **** ENERGY FILE WAS UPDATED (rodnik.en.tmp) ****
Finished Guess after   0.0 sec
Maximum memory used throughout the entire GUESS-calculation: 5.7 MB

-------------------------------------------------------------------------------------------
                                      ORCA LEAN-SCF
                              memory conserving SCF solver
-------------------------------------------------------------------------------------------

----------------------------------------D-I-I-S--------------------------------------------
Iteration    Energy (Eh)           Delta-E    RMSDP     MaxDP     DIISErr   Damp  Time(sec)
-------------------------------------------------------------------------------------------
               ***  Starting incremental Fock matrix formation  ***
    1    -75.3891418828364550     0.00e+00  9.56e-04  1.30e-02  1.59e-01  0.700   0.0
    2    -75.3990267447747868    -9.88e-03  7.03e-04  9.80e-03  1.16e-01  0.700   0.0
                               ***Turning on AO-DIIS***
    3    -75.4053231061476055    -6.30e-03  4.39e-04  5.89e-03  8.44e-02  0.700   0.0
    4    -75.4095563203304806    -4.23e-03  1.19e-03  1.55e-02  5.90e-02  0.000   0.0
    5    -75.4201976116362829    -1.06e-02  2.32e-04  2.97e-03  8.39e-03  0.000   0.0
    6    -75.4203686687987584    -1.71e-04  1.50e-04  1.67e-03  3.47e-03  0.000   0.0
                              *** Initializing SOSCF ***
---------------------------------------S-O-S-C-F--------------------------------------
Iteration    Energy (Eh)           Delta-E    RMSDP     MaxDP     MaxGrad    Time(sec)
--------------------------------------------------------------------------------------
    7    -75.4204258956791591    -5.72e-05  1.26e-04  1.40e-03  2.30e-03     0.0
               *** Restarting incremental Fock matrix formation ***
    8    -75.4204508209156330    -2.49e-05  4.40e-05  3.91e-04  6.89e-04     0.0
    9    -75.4204550755583796    -4.25e-06  9.43e-05  9.78e-04  4.27e-04     0.0
   10    -75.4204592700320973    -4.19e-06  7.98e-06  8.23e-05  1.29e-04     0.0
   11    -75.4204593509561221    -8.09e-08  4.74e-06  5.14e-05  6.68e-05     0.0
   12    -75.4204593705651547    -1.96e-08  8.84e-07  1.10e-05  1.61e-05     0.0
   13    -75.4204593717745269    -1.21e-09  6.14e-07  7.30e-06  8.01e-06     0.0
                 **** Energy Check signals convergence ****

               *****************************************************
               *                     SUCCESS                       *
               *           SCF CONVERGED AFTER  13 CYCLES          *
               *****************************************************

             **** ENERGY FILE WAS UPDATED (rodnik.en.tmp) ****

----------------
TOTAL SCF ENERGY
----------------

Total Energy       :        -75.42045937208771 Eh           -2052.29504 eV

Components:
Nuclear Repulsion  :          4.23341766640000 Eh             115.19715 eV
Electronic Energy  :        -79.65387703848771 Eh           -2167.49219 eV
One Electron Energy:       -112.45374979929537 Eh           -3060.02210 eV
Two Electron Energy:         32.79987276080766 Eh             892.52991 eV

Virial components:
Potential Energy   :       -150.76007124511858 Eh           -4102.39010 eV
Kinetic Energy     :         75.33961187303089 Eh            2050.09506 eV
Virial Ratio       :          2.00107310745366

---------------
SCF CONVERGENCE
---------------

  Last Energy change         ...    1.2094e-09  Tolerance :   1.0000e-08
  Last MAX-Density change    ...    7.3026e-06  Tolerance :   1.0000e-07
  Last RMS-Density change    ...    6.1373e-07  Tolerance :   5.0000e-09
  Last DIIS Error            ...    2.2984e-03  Tolerance :   5.0000e-07
  Last Orbital Gradient      ...    8.0069e-06  Tolerance :   1.0000e-05
  Last Orbital Rotation      ...    9.9012e-06  Tolerance :   1.0000e-05


----------------------
UHF SPIN CONTAMINATION
----------------------

Expectation value of <S**2>     :     0.756870
Ideal value S*(S+1) for S=0.5   :     0.750000
Deviation                       :     0.006870

----------------
ORBITAL ENERGIES
----------------
                 SPIN UP ORBITALS
  NO   OCC          E(Eh)            E(eV) 
   0   1.0000     -20.637246      -561.5680 
   1   1.0000      -1.378131       -37.5009 
   2   1.0000      -0.671498       -18.2724 
   3   1.0000      -0.655085       -17.8258 
   4   1.0000      -0.558210       -15.1897 
   5   0.0000       0.129083         3.5125 
   6   0.0000       0.530425        14.4336 
   7   0.0000       0.541998        14.7485 
   8   0.0000       0.575651        15.6643 
   9   0.0000       0.579153        15.7595 
  10   0.0000       0.719694        19.5839 
  11   0.0000       1.427486        38.8439 
  12   0.0000       1.460636        39.7459 
  13   0.0000       1.679011        45.6882 
  14   0.0000       1.681403        45.7533 
  15   0.0000       1.843571        50.1661 

                 SPIN DOWN ORBITALS
  NO   OCC          E(Eh)            E(eV) 
   0   1.0000     -20.596884      -560.4697 
   1   1.0000      -1.218130       -33.1470 
   2   1.0000      -0.628118       -17.0920 
   3   1.0000      -0.510703       -13.8969 
   4   0.0000       0.101215         2.7542 
   5   0.0000       0.136698         3.7197 
   6   0.0000       0.536979        14.6119 
   7   0.0000       0.592185        16.1142 
   8   0.0000       0.593302        16.1446 
   9   0.0000       0.682925        18.5833 
  10   0.0000       0.741753        20.1841 
  11   0.0000       1.460953        39.7546 
  12   0.0000       1.485415        40.4202 
  13   0.0000       1.763197        47.9790 
  14   0.0000       1.764182        48.0058 
*Only the first 10 virtual orbitals were printed.

                    ********************************
                    * MULLIKEN POPULATION ANALYSIS *
                    ********************************

--------------------------------------------
MULLIKEN ATOMIC CHARGES AND SPIN POPULATIONS
--------------------------------------------
   0 O :   -0.342748    1.053210
   1 H :    0.342748   -0.053210
Sum of atomic charges         :   -0.0000000
Sum of atomic spin populations:    1.0000000

-----------------------------------------------------
MULLIKEN REDUCED ORBITAL CHARGES AND SPIN POPULATIONS
-----------------------------------------------------
CHARGE
  0 O s       :     3.918756  s :     3.918756
      pz      :     0.993787  p :     4.406731
      px      :     1.429191
      py      :     1.983754
      dz2     :     0.004625  d :     0.016356
      dxz     :     0.000787
      dyz     :     0.000000
      dx2y2   :     0.009418
      dxy     :     0.001526
      f0      :     0.000021  f :     0.000904
      f+1     :     0.000177
      f-1     :     0.000040
      f+2     :     0.000029
      f-2     :     0.000000
      f+3     :     0.000551
      f-3     :     0.000086

  1 H s       :     0.617606  s :     0.617606
      pz      :     0.005376  p :     0.039645
      px      :     0.019675
      py      :     0.014595


SPIN
  0 O s       :     0.019134  s :     0.019134
      pz      :     0.993787  p :     1.033889
      px      :     0.039138
      py      :     0.000964
      dz2     :    -0.000704  d :     0.000356
      dxz     :     0.000787
      dyz     :    -0.000000
      dx2y2   :     0.000182
      dxy     :     0.000091
      f0      :     0.000021  f :    -0.000170
      f+1     :    -0.000249
      f-1     :     0.000024
      f+2     :     0.000029
      f-2     :     0.000000
      f+3     :     0.000003
      f-3     :     0.000002

  1 H s       :    -0.057304  s :    -0.057304
      pz      :     0.005376  p :     0.004094
      px      :    -0.000200
      py      :    -0.001081



                     *******************************
                     * LOEWDIN POPULATION ANALYSIS *
                     *******************************

-------------------------------------------
LOEWDIN ATOMIC CHARGES AND SPIN POPULATIONS
-------------------------------------------
   0 O :   -0.168509    1.015840
   1 H :    0.168509   -0.015840

----------------------------------------------------
LOEWDIN REDUCED ORBITAL CHARGES AND SPIN POPULATIONS
----------------------------------------------------
CHARGE
  0 O s       :     3.726508  s :     3.726508
      pz      :     0.981916  p :     4.420910
      px      :     1.480139
      py      :     1.958854
      dz2     :     0.005731  d :     0.019853
      dxz     :     0.000325
      dyz     :     0.000000
      dx2y2   :     0.013193
      dxy     :     0.000604
      f0      :     0.000071  f :     0.001238
      f+1     :     0.000348
      f-1     :     0.000054
      f+2     :     0.000001
      f-2     :     0.000000
      f+3     :     0.000761
      f-3     :     0.000003

  1 H s       :     0.685573  s :     0.685573
      pz      :     0.017686  p :     0.145918
      px      :     0.087747
      py      :     0.040485


SPIN
  0 O s       :     0.013308  s :     0.013308
      pz      :     0.981916  p :     1.003360
      px      :     0.020170
      py      :     0.001273
      dz2     :     0.000026  d :    -0.000648
      dxz     :     0.000325
      dyz     :    -0.000000
      dx2y2   :    -0.001060
      dxy     :     0.000061
      f0      :     0.000071  f :    -0.000179
      f+1     :    -0.000226
      f-1     :     0.000050
      f+2     :     0.000001
      f-2     :     0.000000
      f+3     :    -0.000076
      f-3     :     0.000000

  1 H s       :    -0.037478  s :    -0.037478
      pz      :     0.017686  p :     0.021638
      px      :     0.005336
      py      :    -0.001384



                      *****************************
                      * MAYER POPULATION ANALYSIS *
                      *****************************

  NA   - Mulliken gross atomic population
  ZA   - Total nuclear charge
  QA   - Mulliken gross atomic charge
  VA   - Mayer's total valence
  BVA  - Mayer's bonded valence
  FA   - Mayer's free valence

  ATOM       NA         ZA         QA         VA         BVA        FA
  0 O      8.3427     8.0000    -0.3427     1.8882     0.8868     1.0013
  1 H      0.6573     1.0000     0.3427     0.8904     0.8868     0.0035

  Mayer bond orders larger than 0.100000
B(  0-O ,  1-H ) :   0.8868 

-------
TIMINGS
-------

Total SCF time: 0 days 0 hours 0 min 0 sec 

Total time                  ....       0.217 sec
Sum of individual times     ....       0.194 sec  ( 89.6%)

SCF preparation             ....       0.024 sec  ( 11.3%)
Fock matrix formation       ....       0.155 sec  ( 71.7%)
  Startup                   ....       0.000 sec  (  0.3% of F)
  Coulomb+Exchange Fock     ....       0.163 sec  (105.1% of F)
Diagonalization             ....       0.000 sec  (  0.0%)
Density matrix formation    ....       0.003 sec  (  1.5%)
Total Energy calculation    ....       0.000 sec  (  0.2%)
Population analysis         ....       0.001 sec  (  0.5%)
Orbital Transformation      ....       0.001 sec  (  0.6%)
Orbital Orthonormalization  ....       0.000 sec  (  0.0%)
DIIS solution               ....       0.005 sec  (  2.3%)
SOSCF solution              ....       0.003 sec  (  1.4%)
Finished LeanSCF after   0.2 sec

Maximum memory used throughout the entire LEANSCF-calculation: 11.4 MB

------------------------------------------------------------------------------
                                ORCA  MP2 
------------------------------------------------------------------------------

Freezing NCore=2 chemical core electrons
MP2 will be done in the AO integral direct mode
The Q1-step will be done using symmetric double matrices
Dimension of the basis                    ...   37
Memory devoted for MP2                    ... 4096 MB   
Memory needed for all in one shot         ...    2 MB
Number of MOs that can be treated together... 20639      
MP2 density construction                  ... relaxed
The MP2 gradient is requested => amplitudes will be stored on disk
Total number of MOs              ...    4
Number of MOs treated per batch  ...    4 
Number of batches necessary      ...    1 
OPERATORS   0/  0 PASS   0
OPERATORS   0/  1 PASS   0
Total number of MOs              ...    4
Number of MOs treated per batch  ...    3 
Number of batches necessary      ...    1 
OPERATORS   1/  0 PASS   0
OPERATORS   1/  1 PASS   0

Correlation energy components
 E2 and T2 for alpha/alpha pairs :     -0.031557117 Eh
 E2 and T2 for beta/beta   pairs :     -0.014571329 Eh
 E2 and T2 for alpha/beta  pairs :     -0.150332824 Eh

-----------------------------------------------
 MP2 CORRELATION ENERGY   :     -0.196461269 Eh
-----------------------------------------------


---------------------
MP2 DENSITY FORMATION
---------------------

Completing the external part of the density      ... done
Storing the unrelaxed density                    ... done

Calculating G(D)                                 ... done
Completing the Lagrangian                        ... done
Solving the Z-vector equations                   ... 
-------------------
SHARK CP-SCF DRIVER
-------------------

Dimension of the orbital basis          ...     37
Dimension of the CPSCF-problem          ...    292
Number of operators                     ...      2
Max. number of iterations               ...    128
Convergence Tolerance                   ... 1.0e-04
Number of perturbations                 ...      1
Perturbation type                       ... REAL

----------------------------
POPLE LINEAR EQUATION SOLVER
----------------------------

  ITERATION   0:   ||err||_max =   1.2635e-02 (   0.0 sec)
  ITERATION   1:   ||err||_max =   5.5002e-03 (   0.0 sec)
  ITERATION   2:   ||err||_max =   2.4573e-03 (   0.0 sec)
  ITERATION   3:   ||err||_max =   9.2326e-04 (   0.0 sec)
  ITERATION   4:   ||err||_max =   2.5530e-04 (   0.0 sec)
  ITERATION   5:   ||err||_max =   5.9755e-05 (   0.0 sec)
                                                 ... done
Finalizing the relaxed density                   ... done
Transforming P to the AO basis                   ... done
Storing the relaxed density                      ... done

------------------------------------
ENERGY WEIGHTED DENSITY FINALIZATION
------------------------------------

Gathering the parts of the W-matrix              ...                                                                                                           done
Forming the Z-density                            ... done
Transforming Z to the AO basis                   ... done
Calculating G(Z)                                 ... done
Finalizing the W-matrix                          ...                                                                                                           done
Transforming W to the AO basis and storing       ... done

                *********************************************
                * UNRELAXED MP2 DENSITY POPULATION ANALYSIS *
                *********************************************

------------------------------------------------------------------------------
                           ORCA POPULATION ANALYSIS
------------------------------------------------------------------------------
Input electron density              ... rodnik.pmp2ur
Input spin density                  ... rodnik.rmp2ur
BaseName (.gbw .S,...)              ... rodnik

                    ********************************
                    * MULLIKEN POPULATION ANALYSIS *
                    ********************************

------------------------------------------
MULLIKEN ATOMIC CHARGES AND SPIN DENSITIES
------------------------------------------
   0 O :   -0.339566    1.051989
   1 H :    0.339566   -0.051989
Sum of atomic charges       :   -0.0000000
Sum of atomic spin densities:    1.0000000

---------------------------------------------------
MULLIKEN REDUCED ORBITAL CHARGES AND SPIN DENSITIES
---------------------------------------------------
CHARGE
  0 O s       :     3.911664  s :     3.911664
      pz      :     0.993150  p :     4.386918
      px      :     1.420744
      py      :     1.973024
      dz2     :     0.008143  d :     0.037957
      dxz     :     0.004793
      dyz     :     0.004424
      dx2y2   :     0.014028
      dxy     :     0.006570
      f0      :     0.000268  f :     0.003027
      f+1     :     0.000422
      f-1     :     0.000309
      f+2     :     0.000351
      f-2     :     0.000310
      f+3     :     0.000908
      f-3     :     0.000459
  1 H s       :     0.619143  s :     0.619143
      pz      :     0.006215  p :     0.041291
      px      :     0.019537
      py      :     0.015539

SPIN
  0 O s       :     0.022133  s :     0.022133
      pz      :     0.985486  p :     1.024221
      px      :     0.037960
      py      :     0.000776
      dz2     :     0.001445  d :     0.005422
      dxz     :     0.002447
      dyz     :     0.001518
      dx2y2   :     0.000058
      dxy     :    -0.000046
      f0      :     0.000099  f :     0.000213
      f+1     :    -0.000159
      f-1     :     0.000106
      f+2     :     0.000096
      f-2     :     0.000066
      f+3     :     0.000003
      f-3     :     0.000002
  1 H s       :    -0.056227  s :    -0.056227
      pz      :     0.005562  p :     0.004238
      px      :    -0.000212
      py      :    -0.001113


                     *******************************
                     * LOEWDIN POPULATION ANALYSIS *
                     *******************************

-----------------------------------------
LOEWDIN ATOMIC CHARGES AND SPIN DENSITIES
-----------------------------------------
   0 O :   -0.166405    1.014774
   1 H :    0.166405   -0.014774

--------------------------------------------------
LOEWDIN REDUCED ORBITAL CHARGES AND SPIN DENSITIES
--------------------------------------------------
CHARGE
  0 O s       :     3.720066  s :     3.720066
      pz      :     0.981315  p :     4.400783
      px      :     1.471156
      py      :     1.948312
      dz2     :     0.009444  d :     0.042102
      dxz     :     0.004230
      dyz     :     0.004424
      dx2y2   :     0.018494
      dxy     :     0.005510
      f0      :     0.000318  f :     0.003453
      f+1     :     0.000622
      f-1     :     0.000323
      f+2     :     0.000325
      f-2     :     0.000310
      f+3     :     0.001176
      f-3     :     0.000379
  1 H s       :     0.684446  s :     0.684446
      pz      :     0.018588  p :     0.149149
      px      :     0.089184
      py      :     0.041377

SPIN
  0 O s       :     0.016041  s :     0.016041
      pz      :     0.973702  p :     0.994157
      px      :     0.019380
      py      :     0.001075
      dz2     :     0.002191  d :     0.004369
      dxz     :     0.001927
      dyz     :     0.001518
      dx2y2   :    -0.001195
      dxy     :    -0.000072
      f0      :     0.000150  f :     0.000207
      f+1     :    -0.000133
      f-1     :     0.000131
      f+2     :     0.000069
      f-2     :     0.000066
      f+3     :    -0.000076
      f-3     :     0.000000
  1 H s       :    -0.036447  s :    -0.036447
      pz      :     0.017842  p :     0.021674
      px      :     0.005240
      py      :    -0.001409


                      *****************************
                      * MAYER POPULATION ANALYSIS *
                      *****************************

  NA   - Mulliken gross atomic population
  ZA   - Total nuclear charge
  QA   - Mulliken gross atomic charge
  VA   - Mayer's total valence
  BVA  - Mayer's bonded valence
  FA   - Mayer's free valence

  ATOM       NA         ZA         QA         VA         BVA        FA
  0 O      8.3396     8.0000    -0.3396     2.1220     0.8470     1.2750
  1 H      0.6604     1.0000     0.3396     0.8968     0.8470     0.0497

  Mayer bond orders larger than 0.100000
B(  0-O ,  1-H ) :   0.8470 


                *******************************************
                * RELAXED MP2 DENSITY POPULATION ANALYSIS *
                *******************************************

------------------------------------------------------------------------------
                           ORCA POPULATION ANALYSIS
------------------------------------------------------------------------------
Input electron density              ... rodnik.pmp2re
Input spin density                  ... rodnik.rmp2re
BaseName (.gbw .S,...)              ... rodnik

                    ********************************
                    * MULLIKEN POPULATION ANALYSIS *
                    ********************************

------------------------------------------
MULLIKEN ATOMIC CHARGES AND SPIN DENSITIES
------------------------------------------
   0 O :   -0.334469    1.030036
   1 H :    0.334469   -0.030036
Sum of atomic charges       :   -0.0000000
Sum of atomic spin densities:    1.0000000

---------------------------------------------------
MULLIKEN REDUCED ORBITAL CHARGES AND SPIN DENSITIES
---------------------------------------------------
CHARGE
  0 O s       :     3.920291  s :     3.920291
      pz      :     0.992352  p :     4.374948
      px      :     1.410990
      py      :     1.971606
      dz2     :     0.007218  d :     0.036260
      dxz     :     0.004875
      dyz     :     0.004424
      dx2y2   :     0.013061
      dxy     :     0.006683
      f0      :     0.000265  f :     0.002970
      f+1     :     0.000387
      f-1     :     0.000302
      f+2     :     0.000351
      f-2     :     0.000310
      f+3     :     0.000892
      f-3     :     0.000462
  1 H s       :     0.623200  s :     0.623200
      pz      :     0.006934  p :     0.042331
      px      :     0.018550
      py      :     0.016848

SPIN
  0 O s       :     0.015179  s :     0.015179
      pz      :     0.984687  p :     1.008731
      px      :     0.023356
      py      :     0.000688
      dz2     :     0.001795  d :     0.005883
      dxz     :     0.002529
      dyz     :     0.001518
      dx2y2   :     0.000149
      dxy     :    -0.000108
      f0      :     0.000096  f :     0.000242
      f+1     :    -0.000130
      f-1     :     0.000107
      f+2     :     0.000097
      f-2     :     0.000066
      f+3     :     0.000006
      f-3     :     0.000001
  1 H s       :    -0.034983  s :    -0.034983
      pz      :     0.006281  p :     0.004947
      px      :    -0.000371
      py      :    -0.000962


                     *******************************
                     * LOEWDIN POPULATION ANALYSIS *
                     *******************************

-----------------------------------------
LOEWDIN ATOMIC CHARGES AND SPIN DENSITIES
-----------------------------------------
   0 O :   -0.167594    1.002201
   1 H :    0.167594   -0.002201

--------------------------------------------------
LOEWDIN REDUCED ORBITAL CHARGES AND SPIN DENSITIES
--------------------------------------------------
CHARGE
  0 O s       :     3.723495  s :     3.723495
      pz      :     0.980432  p :     4.399379
      px      :     1.471920
      py      :     1.947026
      dz2     :     0.008839  d :     0.041266
      dxz     :     0.004278
      dyz     :     0.004424
      dx2y2   :     0.018148
      dxy     :     0.005578
      f0      :     0.000314  f :     0.003453
      f+1     :     0.000610
      f-1     :     0.000318
      f+2     :     0.000325
      f-2     :     0.000310
      f+3     :     0.001196
      f-3     :     0.000380
  1 H s       :     0.681964  s :     0.681964
      pz      :     0.019427  p :     0.150442
      px      :     0.088417
      py      :     0.042598

SPIN
  0 O s       :     0.012331  s :     0.012331
      pz      :     0.972820  p :     0.984465
      px      :     0.010733
      py      :     0.000912
      dz2     :     0.002463  d :     0.005145
      dxz     :     0.001975
      dyz     :     0.001518
      dx2y2   :    -0.000699
      dxy     :    -0.000111
      f0      :     0.000146  f :     0.000260
      f+1     :    -0.000101
      f-1     :     0.000130
      f+2     :     0.000069
      f-2     :     0.000066
      f+3     :    -0.000049
      f-3     :     0.000000
  1 H s       :    -0.022649  s :    -0.022649
      pz      :     0.018681  p :     0.020447
      px      :     0.002972
      py      :    -0.001205


                      *****************************
                      * MAYER POPULATION ANALYSIS *
                      *****************************

  NA   - Mulliken gross atomic population
  ZA   - Total nuclear charge
  QA   - Mulliken gross atomic charge
  VA   - Mayer's total valence
  BVA  - Mayer's bonded valence
  FA   - Mayer's free valence

  ATOM       NA         ZA         QA         VA         BVA        FA
  0 O      8.3345     8.0000    -0.3345     2.1176     0.8526     1.2650
  1 H      0.6655     1.0000     0.3345     0.9001     0.8526     0.0475

  Mayer bond orders larger than 0.100000
B(  0-O ,  1-H ) :   0.8526 


----------------------------------
MP2 DERIVATIVE INTEGRAL GENERATION
----------------------------------

Input SCF Electron Density              ... rodnik.scfp
Input Correlated Electron Density       ... rodnik.pmp2re
Input Energy Weighted Density           ... rodnik.wmp2.tmp
Input Wavefunction Amplitudes           ... rodnik.mp2taa.tmp

Nuclear repulsion gradient              ... done (  0.0 sec)
HCore & Overlap gradient  (SHARK)       ... done (  0.0 sec)
Analytic two-electron gradient terms    ... 
  Batch handling in the gradient evaluation:
  General contraction                   ... not used
  Memory available                      ... 4093.5 MB
  Memory per occupied orbital in Q2     ...    0.1 MB
  Memory per occupied orbital in Q3     ...    0.0 MB
  Total memory requirement per |i>      ...    0.1 MB
  Number of orbitals treated per batch  ...      7
  Number of batches to be done          ...      1
done (  0.1 sec)

---------------------------------------
MP2 TOTAL ENERGY:      -75.616920641 Eh
---------------------------------------

The final MP2 gradient
  0:  -0.02497235  -0.00000000   0.00000000
  1:   0.02497235   0.00000000  -0.00000000

-----------------------------------
NORM OF THE MP2 GRADIENT:  0.035316
-----------------------------------

Maximum memory used throughout the entire MP2-calculation: 13.6 MB

-------------------------   --------------------
FINAL SINGLE POINT ENERGY       -75.616920641150
-------------------------   --------------------

------------------------------------------------------------------------------
                         ORCA GEOMETRY RELAXATION STEP
------------------------------------------------------------------------------

Reading the OPT-File                    .... done
Getting information on internals        .... done
Copying old internal coords+grads       .... done
Making the new internal coordinates     .... (2022 redundants) done
Validating the new internal coordinates .... (2022 redundants) done
Calculating the B-matrix                .... done
Calculating the G,G- and P matrices     .... done
Transforming gradient to internals      .... done
Projecting the internal gradient        .... done
Number of atoms                         ....   2
Number of internal coordinates          ....   1
Current Energy                          ....   -75.616920641 Eh
Current gradient norm                   ....     0.035316236 Eh/bohr
Maximum allowed component of the step   ....  0.300
Current trust radius                    ....  0.300
Evaluating the initial hessian          ....  (Almloef) done
Projecting the Hessian                  .... done
Forming the augmented Hessian           .... done
Diagonalizing the augmented Hessian     .... done
Last element of RFO vector              ....  0.998465686
Lowest eigenvalues of augmented Hessian:
 -0.001384942
Length of the computed step             ....  0.055459033
The final length of the internal step   ....  0.055459033
Converting the step to Cartesian space:
 Initial RMS(Int)=    0.0554590333
Transforming coordinates:
 Iter   0:  RMS(Cart)=    0.0160096439 RMS(Int)=    0.0554590333
done
Storing new coordinates                 .... done

                                .--------------------.
          ----------------------|Geometry convergence|-------------------------
          Item                value                   Tolerance       Converged
          ---------------------------------------------------------------------
          RMS gradient        0.0249723497            0.0001000000      NO
          MAX gradient        0.0249723497            0.0003000000      NO
          RMS step            0.0554590333            0.0020000000      NO
          MAX step            0.0554590333            0.0040000000      NO
          -------------------------------------------------------------------------
          ........................................................
          Max(Bonds)      0.0293      Max(Angles)    0.00
          Max(Dihed)        0.00      Max(Improp)    0.00
          ---------------------------------------------------------------------

The optimization has not yet converged - more geometry cycles are needed


    ---------------------------------------------------------------------------
                         Redundant Internal Coordinates
                            (Angstroem and degrees)

        Definition                    Value    dE/dq     Step     New-Value
    ----------------------------------------------------------------------------
     1. B(H   1,O   0)                1.0000  0.024972 -0.0293    0.9707   
    ----------------------------------------------------------------------------

Geometry step timings:
Preparation and reading OPT file:      0.000 s ( 5.351 %)
Internal coordinates            :      0.000 s ( 4.682 %)
B/P matrices and projection     :      0.000 s (17.391 %)
Hessian update/contruction      :      0.000 s (22.408 %)
Making the step                 :      0.000 s (15.719 %)
Converting the step to Cartesian:      0.000 s ( 7.358 %)
Storing new data                :      0.000 s ( 4.348 %)
Checking convergence            :      0.000 s ( 8.027 %)
Final printing                  :      0.000 s (14.716 %)
Total time                      :      0.000 s

Time for energy+gradient        :      0.768 s
Time for complete geometry iter :      0.780 s

         *************************************************************
         *                GEOMETRY OPTIMIZATION CYCLE   2            *
         *************************************************************
---------------------------------
CARTESIAN COORDINATES (ANGSTROEM)
---------------------------------
  O      0.014674    0.000000    0.000000
  H      0.985326    0.000000    0.000000

----------------------------
CARTESIAN COORDINATES (A.U.)
----------------------------
  NO LB      ZA    FRAG     MASS         X           Y           Z
   0 O     8.0000    0    15.999    0.027730    0.000000    0.000000
   1 H     1.0000    0     1.008    1.861997    0.000000    0.000000

--------------------------------
INTERNAL COORDINATES (ANGSTROEM)
--------------------------------
 O      0   0   0     0.000000000000     0.00000000     0.00000000
 H      1   0   0     0.970652343603     0.00000000     0.00000000

---------------------------
INTERNAL COORDINATES (A.U.)
---------------------------
 O      0   0   0     0.000000000000     0.00000000     0.00000000
 H      1   0   0     1.834267100658     0.00000000     0.00000000

------------------------------------------------------------------------------
                   ___                                                        
                  /   \      - P O W E R E D   B Y -                         
                 /     \                                                     
                 |  |  |   _    _      __       _____    __    __             
                 |  |  |  | |  | |    /  \     |  _  \  |  |  /  |          
                  \  \/   | |  | |   /    \    | | | |  |  | /  /          
                 / \  \   | |__| |  /  /\  \   | |_| |  |  |/  /          
                |  |  |   |  __  | /  /__\  \  |    /   |      \           
                |  |  |   | |  | | |   __   |  |    \   |  |\   \          
                \     /   | |  | | |  |  |  |  | |\  \  |  | \   \       
                 \___/    |_|  |_| |__|  |__|  |_| \__\ |__|  \__/        
                                                                              
                      - O R C A' S   B I G   F R I E N D -                    
                                      &                                       
                       - I N T E G R A L  F E E D E R -                       
                                                                              
 v1 FN, 2020, v2 2021, v3 2022-2024                                           
------------------------------------------------------------------------------


----------------------
SHARK INTEGRAL PACKAGE
----------------------

Number of atoms                             ...      2
Number of basis functions                   ...     37
Number of shells                            ...     15
Maximum angular momentum                    ...      3
Integral batch strategy                     ... SHARK/LIBINT Hybrid
RI-J (if used) integral strategy            ... SPLIT-RIJ (Revised 2003 algorithm where possible)
Printlevel                                  ...      1
Contraction scheme used                     ... SEGMENTED contraction
Prescreening option                         ... SCHWARTZ
   Thresh                                   ... 2.500e-11
   Tcut                                     ... 2.500e-12
   Tpresel                                  ... 2.500e-12 
Coulomb Range Separation                    ... NOT USED
Exchange Range Separation                   ... NOT USED
Multipole approximations                    ... NOT USED
Finite Nucleus Model                        ... NOT USED
CABS basis                                  ... NOT available
Auxiliary Coulomb fitting basis             ... NOT available
Auxiliary J/K fitting basis                 ... NOT available
Auxiliary Correlation fitting basis         ... NOT available
Auxiliary 'external' fitting basis          ... NOT available

Checking pre-screening integrals            ... done (  0.0 sec) Dimension = 15
   => SHARK Basis and OBASIS are compatible. Storing Pre-screening
Shell pair information
Shell pair cut-off parameter TPreSel        ...   2.5e-12
Total number of shell pairs                 ...       120
Shell pairs after pre-screening             ...       120
Total number of primitive shell pairs       ...       376
Primitive shell pairs kept                  ...       367
          la=0 lb=0:     36 shell pairs
          la=1 lb=0:     32 shell pairs
          la=1 lb=1:     10 shell pairs
          la=2 lb=0:     16 shell pairs
          la=2 lb=1:      8 shell pairs
          la=2 lb=2:      3 shell pairs
          la=3 lb=0:      8 shell pairs
          la=3 lb=1:      4 shell pairs
          la=3 lb=2:      2 shell pairs
          la=3 lb=3:      1 shell pairs

Checking whether 4 symmetric matrices of dimension 37 fit in memory
:Max Core in MB      =   4096.00
 MB in use           =      2.01
 MB left             =   4093.99
 MB needed           =      0.02
 Data fit in memory  = YES
Calculating Nuclear repulsion               ... done (  0.0 sec) ENN=      4.361414974477 Eh

Diagonalization of the overlap matrix:
Smallest eigenvalue                        ... 1.051e-02
Time for diagonalization                   ...    0.000 sec
Threshold for overlap eigenvalues          ... 1.000e-07
Number of eigenvalues below threshold      ... 0
Time for construction of square roots      ...    0.000 sec
Total time needed                          ...    0.000 sec

-------------------
DFT GRID GENERATION
-------------------

General Integration Accuracy     IntAcc      ... 4.388
Radial Grid Type                 RadialGrid  ... OptM3 with GC (2021)
Angular Grid (max. ang.)         AngularGrid ... 4 (Lebedev-302)
Angular grid pruning method      GridPruning ... 4 (adaptive)
Weight generation scheme         WeightScheme... mBecke (2022)
Basis function cutoff            BFCut       ... 1.0000e-11
Integration weight cutoff        WCut        ... 1.0000e-14
Partially contracted basis set               ... off
Rotationally invariant grid construction     ... off
Angular grids for H and He will be reduced by one unit

Total number of grid points                  ...     9453
Total number of batches                      ...      149
Average number of points per batch           ...       63
Average number of grid points per atom       ...     4726
Grids setup in   0.0 sec
Initializing property integral containers    ... done (  0.0 sec)

SHARK setup successfully completed in   0.1 seconds

Maximum memory used throughout the entire STARTUP-calculation: 12.5 MB
             **** ENERGY FILE WAS UPDATED (rodnik.en.tmp) ****
Finished Guess after   0.0 sec
Maximum memory used throughout the entire GUESS-calculation: 5.7 MB
----------------------------------------D-I-I-S--------------------------------------------
Iteration    Energy (Eh)           Delta-E    RMSDP     MaxDP     DIISErr   Damp  Time(sec)
-------------------------------------------------------------------------------------------
               ***  Starting incremental Fock matrix formation  ***
    1    -75.4219438589500299     0.00e+00  6.81e-05  7.29e-04  7.35e-03  0.700   0.0
    2    -75.4220092345715187    -6.54e-05  5.56e-05  6.03e-04  5.64e-03  0.700   0.0
                               ***Turning on AO-DIIS***
    3    -75.4220587252394949    -4.95e-05  4.82e-05  4.88e-04  4.27e-03  0.700   0.0
                              *** Initializing SOSCF ***
---------------------------------------S-O-S-C-F--------------------------------------
Iteration    Energy (Eh)           Delta-E    RMSDP     MaxDP     MaxGrad    Time(sec)
--------------------------------------------------------------------------------------
    4    -75.4220957521294082    -3.70e-05  1.30e-04  1.39e-03  3.14e-03     0.0
               *** Restarting incremental Fock matrix formation ***
    5    -75.4221983979715986    -1.03e-04  2.44e-05  2.96e-04  6.20e-04     0.0
    6    -75.4221999338235065    -1.54e-06  2.42e-05  2.45e-04  2.56e-04     0.0
    7    -75.4222004098578083    -4.76e-07  4.38e-06  5.91e-05  1.02e-04     0.0
    8    -75.4222004549113620    -4.51e-08  4.99e-06  6.35e-05  5.49e-05     0.0
    9    -75.4222004785295752    -2.36e-08  1.52e-06  2.19e-05  2.56e-05     0.0
   10    -75.4222004808933661    -2.36e-09  3.50e-07  4.48e-06  7.13e-06     0.0
                 **** Energy Check signals convergence ****

               *****************************************************
               *                     SUCCESS                       *
               *           SCF CONVERGED AFTER  10 CYCLES          *
               *****************************************************

             **** ENERGY FILE WAS UPDATED (rodnik.en.tmp) ****

----------------
TOTAL SCF ENERGY
----------------

Total Energy       :        -75.42220048104082 Eh           -2052.34241 eV

Components:
Nuclear Repulsion  :          4.36141497447652 Eh             118.68014 eV
Electronic Energy  :        -79.78361545551734 Eh           -2171.02255 eV
One Electron Energy:       -112.67996307196526 Eh           -3066.17768 eV
Two Electron Energy:         32.89634761644793 Eh             895.15513 eV

Virial components:
Potential Energy   :       -150.81400892523970 Eh           -4103.85782 eV
Kinetic Energy     :         75.39180844419890 Eh            2051.51540 eV
Virial Ratio       :          2.00040312120732

---------------
SCF CONVERGENCE
---------------

  Last Energy change         ...    2.3638e-09  Tolerance :   1.0000e-08
  Last MAX-Density change    ...    4.4803e-06  Tolerance :   1.0000e-07
  Last RMS-Density change    ...    3.5030e-07  Tolerance :   5.0000e-09
  Last DIIS Error            ...    3.1420e-03  Tolerance :   5.0000e-07
  Last Orbital Gradient      ...    7.1305e-06  Tolerance :   1.0000e-05
  Last Orbital Rotation      ...    7.1233e-06  Tolerance :   1.0000e-05


----------------------
UHF SPIN CONTAMINATION
----------------------

Expectation value of <S**2>     :     0.756408
Ideal value S*(S+1) for S=0.5   :     0.750000
Deviation                       :     0.006408

Total SCF time: 0 days 0 hours 0 min 0 sec 
Finished LeanSCF after   0.2 sec

Maximum memory used throughout the entire LEANSCF-calculation: 11.5 MB

------------------------------------------------------------------------------
                                ORCA  MP2 
------------------------------------------------------------------------------

Freezing NCore=2 chemical core electrons
MP2 will be done in the AO integral direct mode
The Q1-step will be done using symmetric double matrices
Dimension of the basis                    ...   37
Memory devoted for MP2                    ... 4096 MB   
Memory needed for all in one shot         ...    2 MB
Number of MOs that can be treated together... 20639      
MP2 density construction                  ... relaxed
The MP2 gradient is requested => amplitudes will be stored on disk
Total number of MOs              ...    4
Number of MOs treated per batch  ...    4 
Number of batches necessary      ...    1 
OPERATORS   0/  0 PASS   0
OPERATORS   0/  1 PASS   0
Total number of MOs              ...    4
Number of MOs treated per batch  ...    3 
Number of batches necessary      ...    1 
OPERATORS   1/  0 PASS   0
OPERATORS   1/  1 PASS   0

Correlation energy components
 E2 and T2 for alpha/alpha pairs :     -0.031441740 Eh
 E2 and T2 for beta/beta   pairs :     -0.014500043 Eh
 E2 and T2 for alpha/beta  pairs :     -0.149466086 Eh

-----------------------------------------------
 MP2 CORRELATION ENERGY   :     -0.195407869 Eh
-----------------------------------------------


---------------------
MP2 DENSITY FORMATION
---------------------

Completing the external part of the density      ... done
Storing the unrelaxed density                    ... done

Calculating G(D)                                 ... done
Completing the Lagrangian                        ... done
Solving the Z-vector equations                   ... 
-------------------
SHARK CP-SCF DRIVER
-------------------

Dimension of the orbital basis          ...     37
Dimension of the CPSCF-problem          ...    292
Number of operators                     ...      2
Max. number of iterations               ...    128
Convergence Tolerance                   ... 1.0e-04
Number of perturbations                 ...      1
Perturbation type                       ... REAL

----------------------------
POPLE LINEAR EQUATION SOLVER
----------------------------

  ITERATION   0:   ||err||_max =   1.1751e-02 (   0.0 sec)
  ITERATION   1:   ||err||_max =   4.6907e-03 (   0.0 sec)
  ITERATION   2:   ||err||_max =   1.8930e-03 (   0.0 sec)
  ITERATION   3:   ||err||_max =   7.1294e-04 (   0.0 sec)
  ITERATION   4:   ||err||_max =   1.9908e-04 (   0.0 sec)
  ITERATION   5:   ||err||_max =   4.6095e-05 (   0.0 sec)
                                                 ... done
Finalizing the relaxed density                   ... done
Transforming P to the AO basis                   ... done
Storing the relaxed density                      ... done

------------------------------------
ENERGY WEIGHTED DENSITY FINALIZATION
------------------------------------

Gathering the parts of the W-matrix              ...                                                                                                           done
Forming the Z-density                            ... done
Transforming Z to the AO basis                   ... done
Calculating G(Z)                                 ... done
Finalizing the W-matrix                          ...                                                                                                           done
Transforming W to the AO basis and storing       ... done

----------------------------------
MP2 DERIVATIVE INTEGRAL GENERATION
----------------------------------

Input SCF Electron Density              ... rodnik.scfp
Input Correlated Electron Density       ... rodnik.pmp2re
Input Energy Weighted Density           ... rodnik.wmp2.tmp
Input Wavefunction Amplitudes           ... rodnik.mp2taa.tmp

Nuclear repulsion gradient              ... done (  0.0 sec)
HCore & Overlap gradient  (SHARK)       ... done (  0.0 sec)
Analytic two-electron gradient terms    ... 
  Batch handling in the gradient evaluation:
  General contraction                   ... not used
  Memory available                      ... 4093.4 MB
  Memory per occupied orbital in Q2     ...    0.1 MB
  Memory per occupied orbital in Q3     ...    0.0 MB
  Total memory requirement per |i>      ...    0.1 MB
  Number of orbitals treated per batch  ...      7
  Number of batches to be done          ...      1
done (  0.1 sec)

---------------------------------------
MP2 TOTAL ENERGY:      -75.617608350 Eh
---------------------------------------

The final MP2 gradient
  0:   0.00102696   0.00000000   0.00000000
  1:  -0.00102696  -0.00000000  -0.00000000

-----------------------------------
NORM OF THE MP2 GRADIENT:  0.001452
-----------------------------------

Maximum memory used throughout the entire MP2-calculation: 13.6 MB

-------------------------   --------------------
FINAL SINGLE POINT ENERGY       -75.617608349920
-------------------------   --------------------

------------------------------------------------------------------------------
                         ORCA GEOMETRY RELAXATION STEP
------------------------------------------------------------------------------

Reading the OPT-File                    .... done
Getting information on internals        .... done
Copying old internal coords+grads       .... done
Making the new internal coordinates     .... (2022 redundants) done
Validating the new internal coordinates .... (2022 redundants) done
Calculating the B-matrix                .... done
Calculating the G,G- and P matrices     .... done
Transforming gradient to internals      .... done
Projecting the internal gradient        .... done
Number of atoms                         ....   2
Number of internal coordinates          ....   1
Current Energy                          ....   -75.617608350 Eh
Current gradient norm                   ....     0.001452339 Eh/bohr
Maximum allowed component of the step   ....  0.300
Current trust radius                    ....  0.300
Updating the Hessian (BFGS)             .... done
Forming the augmented Hessian           .... done
Diagonalizing the augmented Hessian     .... done
Last element of RFO vector              ....  0.999997601
Lowest eigenvalues of augmented Hessian:
 -0.000002250
Length of the computed step             ....  0.002190592
The final length of the internal step   ....  0.002190592
Converting the step to Cartesian space:
 Initial RMS(Int)=    0.0021905916
Transforming coordinates:
 Iter   0:  RMS(Cart)=    0.0006323693 RMS(Int)=    0.0021905916
done
Storing new coordinates                 .... done
The predicted energy change is          ....    -0.000001125
Previously predicted energy change      ....    -0.000694601
Actually observed energy change         ....    -0.000687709
Ratio of predicted to observed change   ....     0.990077394
New trust radius                        ....     0.450000000

                                .--------------------.
          ----------------------|Geometry convergence|-------------------------
          Item                value                   Tolerance       Converged
          ---------------------------------------------------------------------
          Energy change      -0.0006877088            0.0000050000      NO
          RMS gradient        0.0010269588            0.0001000000      NO
          MAX gradient        0.0010269588            0.0003000000      NO
          RMS step            0.0021905916            0.0020000000      NO
          MAX step            0.0021905916            0.0040000000      YES
          -------------------------------------------------------------------------
          ........................................................
          Max(Bonds)      0.0012      Max(Angles)    0.00
          Max(Dihed)        0.00      Max(Improp)    0.00
          ---------------------------------------------------------------------

The optimization has not yet converged - more geometry cycles are needed


    ---------------------------------------------------------------------------
                         Redundant Internal Coordinates
                            (Angstroem and degrees)

        Definition                    Value    dE/dq     Step     New-Value
    ----------------------------------------------------------------------------
     1. B(H   1,O   0)                0.9707 -0.001027  0.0012    0.9718   
    ----------------------------------------------------------------------------

Geometry step timings:
Preparation and reading OPT file:      0.000 s ( 4.190 %)
Internal coordinates            :      0.000 s ( 3.631 %)
B/P matrices and projection     :      0.000 s (13.687 %)
Hessian update/contruction      :      0.000 s (29.050 %)
Making the step                 :      0.000 s ( 6.704 %)
Converting the step to Cartesian:      0.000 s (19.274 %)
Storing new data                :      0.000 s ( 3.631 %)
Checking convergence            :      0.000 s ( 8.101 %)
Final printing                  :      0.000 s (11.173 %)
Total time                      :      0.000 s

Time for energy+gradient        :      0.671 s
Time for complete geometry iter :      0.683 s

         *************************************************************
         *                GEOMETRY OPTIMIZATION CYCLE   3            *
         *************************************************************
---------------------------------
CARTESIAN COORDINATES (ANGSTROEM)
---------------------------------
  O      0.014094    0.000000    0.000000
  H      0.985906    0.000000    0.000000

----------------------------
CARTESIAN COORDINATES (A.U.)
----------------------------
  NO LB      ZA    FRAG     MASS         X           Y           Z
   0 O     8.0000    0    15.999    0.026634    0.000000    0.000000
   1 H     1.0000    0     1.008    1.863092    0.000000    0.000000

--------------------------------
INTERNAL COORDINATES (ANGSTROEM)
--------------------------------
 O      0   0   0     0.000000000000     0.00000000     0.00000000
 H      1   0   0     0.971811554776     0.00000000     0.00000000

---------------------------
INTERNAL COORDINATES (A.U.)
---------------------------
 O      0   0   0     0.000000000000     0.00000000     0.00000000
 H      1   0   0     1.836457692307     0.00000000     0.00000000

------------------------------------------------------------------------------
                   ___                                                        
                  /   \      - P O W E R E D   B Y -                         
                 /     \                                                     
                 |  |  |   _    _      __       _____    __    __             
                 |  |  |  | |  | |    /  \     |  _  \  |  |  /  |          
                  \  \/   | |  | |   /    \    | | | |  |  | /  /          
                 / \  \   | |__| |  /  /\  \   | |_| |  |  |/  /          
                |  |  |   |  __  | /  /__\  \  |    /   |      \           
[...]
      dyz     :     0.001518
      dx2y2   :     0.000072
      dxy     :    -0.000049
      f0      :     0.000097  f :     0.000197
      f+1     :    -0.000173
      f-1     :     0.000104
      f+2     :     0.000099
      f-2     :     0.000066
      f+3     :     0.000002
      f-3     :     0.000002
  1 H s       :    -0.051757  s :    -0.051757
      pz      :     0.006099  p :     0.004766
      px      :    -0.000159
      py      :    -0.001174


                     *******************************
                     * LOEWDIN POPULATION ANALYSIS *
                     *******************************

-----------------------------------------
LOEWDIN ATOMIC CHARGES AND SPIN DENSITIES
-----------------------------------------
   0 O :   -0.148838    1.008610
   1 H :    0.148838   -0.008610

--------------------------------------------------
LOEWDIN REDUCED ORBITAL CHARGES AND SPIN DENSITIES
--------------------------------------------------
CHARGE
  0 O s       :     3.700089  s :     3.700089
      pz      :     0.978860  p :     4.402504
      px      :     1.480409
      py      :     1.943235
      dz2     :     0.009607  d :     0.042644
      dxz     :     0.004208
      dyz     :     0.004427
      dx2y2   :     0.018939
      dxy     :     0.005464
      f0      :     0.000324  f :     0.003601
      f+1     :     0.000668
      f-1     :     0.000325
      f+2     :     0.000327
      f-2     :     0.000312
      f+3     :     0.001265
      f-3     :     0.000381
  1 H s       :     0.690099  s :     0.690099
      pz      :     0.021057  p :     0.161063
      px      :     0.093504
      py      :     0.046502

SPIN
  0 O s       :     0.016023  s :     0.016023
      pz      :     0.971273  p :     0.987919
      px      :     0.015526
      py      :     0.001119
      dz2     :     0.002214  d :     0.004467
      dxz     :     0.001901
      dyz     :     0.001518
      dx2y2   :    -0.001085
      dxy     :    -0.000081
      f0      :     0.000156  f :     0.000202
      f+1     :    -0.000146
      f-1     :     0.000133
      f+2     :     0.000069
      f-2     :     0.000066
      f+3     :    -0.000075
      f-3     :    -0.000000
  1 H s       :    -0.032799  s :    -0.032799
      pz      :     0.020297  p :     0.024189
      px      :     0.005339
      py      :    -0.001447


                      *****************************
                      * MAYER POPULATION ANALYSIS *
                      *****************************

  NA   - Mulliken gross atomic population
  ZA   - Total nuclear charge
  QA   - Mulliken gross atomic charge
  VA   - Mayer's total valence
  BVA  - Mayer's bonded valence
  FA   - Mayer's free valence

  ATOM       NA         ZA         QA         VA         BVA        FA
  0 O      8.3373     8.0000    -0.3373     2.1222     0.8531     1.2691
  1 H      0.6627     1.0000     0.3373     0.9000     0.8531     0.0470

  Mayer bond orders larger than 0.100000
B(  0-O ,  1-H ) :   0.8531 


                *******************************************
                * RELAXED MP2 DENSITY POPULATION ANALYSIS *
                *******************************************

------------------------------------------------------------------------------
                           ORCA POPULATION ANALYSIS
------------------------------------------------------------------------------
Input electron density              ... rodnik.pmp2re
Input spin density                  ... rodnik.rmp2re
BaseName (.gbw .S,...)              ... rodnik

                    ********************************
                    * MULLIKEN POPULATION ANALYSIS *
                    ********************************

------------------------------------------
MULLIKEN ATOMIC CHARGES AND SPIN DENSITIES
------------------------------------------
   0 O :   -0.331938    1.029001
   1 H :    0.331938   -0.029001
Sum of atomic charges       :    0.0000000
Sum of atomic spin densities:    1.0000000

---------------------------------------------------
MULLIKEN REDUCED ORBITAL CHARGES AND SPIN DENSITIES
---------------------------------------------------
CHARGE
  0 O s       :     3.915217  s :     3.915217
      pz      :     0.991738  p :     4.377082
      px      :     1.415194
      py      :     1.970150
      dz2     :     0.007265  d :     0.036592
      dxz     :     0.004931
      dyz     :     0.004427
      dx2y2   :     0.013198
      dxy     :     0.006772
      f0      :     0.000264  f :     0.003046
      f+1     :     0.000406
      f-1     :     0.000302
      f+2     :     0.000356
      f-2     :     0.000312
      f+3     :     0.000936
      f-3     :     0.000471
  1 H s       :     0.622978  s :     0.622978
      pz      :     0.007487  p :     0.045084
      px      :     0.019385
      py      :     0.018212

SPIN
  0 O s       :     0.015936  s :     0.015936
      pz      :     0.984087  p :     1.006942
      px      :     0.022107
      py      :     0.000747
      dz2     :     0.001769  d :     0.005894
      dxz     :     0.002579
      dyz     :     0.001518
      dx2y2   :     0.000137
      dxy     :    -0.000110
      f0      :     0.000094  f :     0.000230
      f+1     :    -0.000141
      f-1     :     0.000105
      f+2     :     0.000100
      f-2     :     0.000066
      f+3     :     0.000006
      f-3     :     0.000000
  1 H s       :    -0.034526  s :    -0.034526
      pz      :     0.006835  p :     0.005525
      px      :    -0.000291
      py      :    -0.001019


                     *******************************
                     * LOEWDIN POPULATION ANALYSIS *
                     *******************************

-----------------------------------------
LOEWDIN ATOMIC CHARGES AND SPIN DENSITIES
-----------------------------------------
   0 O :   -0.149836    0.998561
   1 H :    0.149836    0.001439

--------------------------------------------------
LOEWDIN REDUCED ORBITAL CHARGES AND SPIN DENSITIES
--------------------------------------------------
CHARGE
  0 O s       :     3.703335  s :     3.703335
      pz      :     0.977981  p :     4.401091
      px      :     1.481106
      py      :     1.942004
      dz2     :     0.008994  d :     0.041812
      dxz     :     0.004255
      dyz     :     0.004427
      dx2y2   :     0.018607
      dxy     :     0.005530
      f0      :     0.000320  f :     0.003598
      f+1     :     0.000654
      f-1     :     0.000320
      f+2     :     0.000327
      f-2     :     0.000312
      f+3     :     0.001284
      f-3     :     0.000381
  1 H s       :     0.687776  s :     0.687776
      pz      :     0.021893  p :     0.162388
      px      :     0.092824
      py      :     0.047671

SPIN
  0 O s       :     0.012363  s :     0.012363
      pz      :     0.970394  p :     0.980851
      px      :     0.009508
      py      :     0.000949
      dz2     :     0.002451  d :     0.005096
      dxz     :     0.001948
      dyz     :     0.001518
      dx2y2   :    -0.000706
      dxy     :    -0.000116
      f0      :     0.000151  f :     0.000252
      f+1     :    -0.000113
      f-1     :     0.000131
      f+2     :     0.000069
      f-2     :     0.000066
      f+3     :    -0.000052
      f-3     :    -0.000000
  1 H s       :    -0.021771  s :    -0.021771
      pz      :     0.021133  p :     0.023209
      px      :     0.003316
      py      :    -0.001240


                      *****************************
                      * MAYER POPULATION ANALYSIS *
                      *****************************

  NA   - Mulliken gross atomic population
  ZA   - Total nuclear charge
  QA   - Mulliken gross atomic charge
  VA   - Mayer's total valence
  BVA  - Mayer's bonded valence
  FA   - Mayer's free valence

  ATOM       NA         ZA         QA         VA         BVA        FA
  0 O      8.3319     8.0000    -0.3319     2.1181     0.8581     1.2600
  1 H      0.6681     1.0000     0.3319     0.9035     0.8581     0.0454

  Mayer bond orders larger than 0.100000
B(  0-O ,  1-H ) :   0.8581 


----------------------------------
MP2 DERIVATIVE INTEGRAL GENERATION
----------------------------------

Input SCF Electron Density              ... rodnik.scfp
Input Correlated Electron Density       ... rodnik.pmp2re
Input Energy Weighted Density           ... rodnik.wmp2.tmp
Input Wavefunction Amplitudes           ... rodnik.mp2taa.tmp

Nuclear repulsion gradient              ... done (  0.0 sec)
HCore & Overlap gradient  (SHARK)       ... done (  0.0 sec)
Analytic two-electron gradient terms    ... 
  Batch handling in the gradient evaluation:
  General contraction                   ... not used
  Memory available                      ... 4093.3 MB
  Memory per occupied orbital in Q2     ...    0.1 MB
  Memory per occupied orbital in Q3     ...    0.0 MB
  Total memory requirement per |i>      ...    0.1 MB
  Number of orbitals treated per batch  ...      7
  Number of batches to be done          ...      1
done (  0.1 sec)

---------------------------------------
MP2 TOTAL ENERGY:      -75.617609322 Eh
---------------------------------------

The final MP2 gradient
  0:  -0.00000234   0.00000000   0.00000000
  1:   0.00000234  -0.00000000  -0.00000000

-----------------------------------
NORM OF THE MP2 GRADIENT:  0.000003
-----------------------------------

Maximum memory used throughout the entire MP2-calculation: 13.7 MB

-------------------------   --------------------
FINAL SINGLE POINT ENERGY       -75.617609321807
-------------------------   --------------------

                                *** OPTIMIZATION RUN DONE ***


------------------------------------------------------------------------------
                              ORCA PROPERTY CALCULATIONS
------------------------------------------------------------------------------

GBWName                                 ... rodnik.gbw
Number of atoms                         ...      2
Number of basis functions               ...     37
Max core memory                         ...   4096 MB

Electric properties:
Dipole moment                           ... YES
Quadrupole moment                       ...  NO
Static polarizability (Dipole/Dipole)   ...  NO
Static polarizability (Dipole/Quad.)    ...  NO
Static polarizability (Quad./Quad.)     ...  NO
Static polarizability (Velocity)        ...  NO
Static hyperpolarizability              ...  NO

Atomic electric properties:
Dipole moment                           ...  NO
Quadrupole moment                       ...  NO
Static polarizability                   ...  NO

Choice of electric origin               ... Center of mass
Position of electric origin             ...     0.135565     0.000000     0.000000

General magnetic properties:
Magnetizability                         ...  NO

EPR properties:
g-Tensor (aka g-matrix)                 ...  NO
Zero-Field splitting spin-orbit         ...  NO
Zero-field splitting spin-spin          ...  NO
Hyperfine couplings                     ...  NO (   0 nuclei)
Quadrupole couplings                    ...  NO (   0 nuclei)
Contact density                         ...  NO (   0 nuclei)

NMR properties:
Chemical shifts                         ...  NO (   0 nuclei)
Spin-rotation constants                 ...  NO (   0 nuclei)
Spin-spin couplings                     ...  NO (   0 nuclei,    0 pairs)

Choice of magnetic origin               ... GIAO
Position of magnetic origin             ...     0.000000     0.000000     0.000000

Properties with geometric perturbations:
SCF Hessian                             ...  NO
IR spectrum                             ...  NO
VCD spectrum                            ...  NO
X-ray spectroscopy properties:
SCF XES/XAS/RIXS spectra                ...  NO

SCF SOC stabilization energy            ...  NO
Diagonal Born-Oppenheimer correction    ...  NO

-------------
DIPOLE MOMENT
-------------

Method             : SCF
Type of density    : Electron Density
Multiplicity       :   2
Irrep              :   0
Energy             :   -75.4221634167405597 Eh
Basis              : AO
                                X                 Y                 Z
Electronic contribution:     -0.127802360       0.000000000      -0.000000000
Nuclear contribution   :      0.856751618       0.000000000       0.000000000
                        -----------------------------------------
Total Dipole Moment    :      0.728949258       0.000000000      -0.000000000
                        -----------------------------------------
Magnitude (a.u.)       :      0.728949258
Magnitude (Debye)      :      1.852841766



--------------------
Rotational spectrum 
--------------------
 
Rotational constants in cm-1:             0.000000            18.827696            18.827696 
Rotational constants in MHz :             0.000000        564440.122819        564440.122819 

Dipole components along the rotational axes: 
x,y,z [a.u.] :     0.728949     0.000000    -0.000000 
x,y,z [Debye]:     1.852842     0.000000    -0.000000 

 

-------------
DIPOLE MOMENT
-------------

Method             : MP2
Type of density    : Electron Density
Multiplicity       :   2
Level              : Unrelaxed density
Irrep              :   0
Energy             :     0.0000000000000000 Eh
Basis              : AO
                                X                 Y                 Z
Electronic contribution:     -0.136464940       0.000000000      -0.000000000
Nuclear contribution   :      0.856751618       0.000000000       0.000000000
                        -----------------------------------------
Total Dipole Moment    :      0.720286679       0.000000000      -0.000000000
                        -----------------------------------------
Magnitude (a.u.)       :      0.720286679
Magnitude (Debye)      :      1.830823239



--------------------
Rotational spectrum 
--------------------
 
Rotational constants in cm-1:             0.000000            18.827696            18.827696 
Rotational constants in MHz :             0.000000        564440.122819        564440.122819 

Dipole components along the rotational axes: 
x,y,z [a.u.] :     0.720287     0.000000    -0.000000 
x,y,z [Debye]:     1.830823     0.000000    -0.000000 

 

-------------
DIPOLE MOMENT
-------------

Method             : MP2
Type of density    : Electron Density
Multiplicity       :   2
Level              : Relaxed density
Irrep              :   0
Energy             :     0.0000000000000000 Eh
Basis              : AO
                                X                 Y                 Z
Electronic contribution:     -0.146305065       0.000000000      -0.000000000
Nuclear contribution   :      0.856751618       0.000000000       0.000000000
                        -----------------------------------------
Total Dipole Moment    :      0.710446553       0.000000000      -0.000000000
                        -----------------------------------------
Magnitude (a.u.)       :      0.710446553
Magnitude (Debye)      :      1.805811627



--------------------
Rotational spectrum 
--------------------
 
Rotational constants in cm-1:             0.000000            18.827696            18.827696 
Rotational constants in MHz :             0.000000        564440.122819        564440.122819 

Dipole components along the rotational axes: 
x,y,z [a.u.] :     0.710447     0.000000    -0.000000 
x,y,z [Debye]:     1.805812     0.000000    -0.000000 

 

Dipole moment calculation done in   0.0 sec 

Maximum memory used throughout the entire PROP-calculation: 2.5 MB

--------------------------------
SUGGESTED CITATIONS FOR THIS RUN
--------------------------------

Below you find a list of papers that are relevant to this ORCA run
We neither can nor want to force you to cite these papers, but we appreciate if you do
You receive ORCA, which is the product of decades of hard work by many enthusiastic individuals, for free
The only thing we kindly ask in return is that you cite our papers,
We deeply appreciate it, if you show your appreciation for ORCA by not just citing the generic ORCA reference.

Please note that relegating all ORCA citations to the supporting information does *not* help us.
SI sections are not indexed - citations you put there will not count into any citation statistics
But we need these citations in order to attract the funding resources that allow us to do what we are doing

Therefore, if you are a happy ORCA user, please consider citing a few of the papers listed below in the main body of your paper

In addition to the list printed below, the program has created the file rodnik.bibtex that contains the list in bibtex format
You can import this file easily into all common literature databanks and citation aid programs

It goes without saying that in many instances, there are alternative algorithms to achieve similar
results as the ones you have gotten from ORCA. It is, of course, also the case that in some instances
ORCA just re-implements algorithms worked out by others. We are fully aware of that and we are also
fully appreciative of our colleagues work. Hence this citation list should not be read as indicating
that the listed papers, which are focused on our own work, are the only ones worth citing. It simply
meant to make it easier for users to cite ORCA specific papers. It is not a substitute for doing your
own literature research and citing the relevant literature in a scientifically appropriate manner.

List of essential papers. We consider these as the minimum necessary citations

  1. Neese, F.
     Software update: the ORCA program system, version 6.0
     WIRES Comput. Molec. Sci. 2025 15(1), e70019
     doi.org/10.1002/wcms.70019

List of papers to cite with high priority. The work reported in these papers was absolutely
necessary for this run to complete.
Our perspective: the developers of density functionals and basis sets usually get cited in chemistry papers
Good! But without the algorithms to do something with them, the functionals or basis sets would not do anything.
Hence, in our opinion, the algorithm design and method developments papers are equally worthy of getting cited

  1. Neese, F.
     The SHARK Integral Generation and Digestion System
     J. Comp. Chem. 2022 44(3), 381
     doi.org/10.1002/jcc.26942

List of suggested additional citations. These are papers that are important in the 'surrounding' of 
of this run, or papers that preceded the highly important papers. If you like your results we are grateful for a citation.

  1. Neese, F.
     The ORCA program system
     WIRES Comput. Molec. Sci. 2012 2(1), 73-78
     doi.org/10.1002/wcms.81
  2. Neese, F.
     Software update: the ORCA program system, version 4.0
     WIRES Comput. Molec. Sci. 2018 8(1), 1-6
     doi.org/10.1002/wcms.1327
  3. Neese, F.; Wennmohs, F.; Becker, U.; Riplinger, C.
     The ORCA quantum chemistry program package
     J. Chem. Phys. 2020 152(22), 224108
     doi.org/10.1063/5.0004608
  4. Neese, F.
     Software update: The ORCA program system—Version 5.0
     WIRES Comput. Molec. Sci. 2022 12(1), e1606
     doi.org/10.1002/wcms.1606

List of optional additional citations

  1. Neese, F.
     Approximate second-order SCF convergence for spin unrestricted wavefunctions
     Chem. Phys. Lett. 2000 325(1-3), 93-98
     doi.org/10.1016/s0009-2614(00)00662-x

Timings for individual modules:

Sum of individual times          ...        2.692 sec (=   0.045 min)
Startup calculation              ...        0.334 sec (=   0.006 min)  12.4 %
SCF iterations                   ...        0.783 sec (=   0.013 min)  29.1 %
Property calculations            ...        0.042 sec (=   0.001 min)   1.6 %
MP2 module                       ...        1.528 sec (=   0.025 min)  56.8 %
Geometry relaxation              ...        0.005 sec (=   0.000 min)   0.2 %
                             ****ORCA TERMINATED NORMALLY****
TOTAL RUN TIME: 0 days 0 hours 0 minutes 2 seconds 811 msec
