
                                 *****************
                                 * O   R   C   A *
                                 *****************

                                            #,                                       
                                            ###                                      
                                            ####                                     
                                            #####                                    
                                            ######                                   
                                           ########,                                 
                                     ,,################,,,,,                         
                               ,,#################################,,                 
                          ,,##########################################,,             
                       ,#########################################, ''#####,          
                    ,#############################################,,   '####,        
                  ,##################################################,,,,####,       
                ,###########''''           ''''###############################       
              ,#####''   ,,,,##########,,,,          '''####'''          '####       
            ,##' ,,,,###########################,,,                        '##       
           ' ,,###''''                  '''############,,,                           
         ,,##''                                '''############,,,,        ,,,,,,###''
      ,#''                                            '''#######################'''  
     '                                                          ''''####''''         
             ,#######,   #######,   ,#######,      ##                                
            ,#'     '#,  ##    ##  ,#'     '#,    #''#        ,####,    ,#,          
            ##       ##  ##   ,#'  ##            #'  '#       #'       ,# #          
            ##       ##  #######   ##           ,######,      #####,      #          
            '#,     ,#'  ##    ##  '#,     ,#' ,#      #,     #,   #      #          
             '#######'   ##     ##  '#######'  #'      '#     '####' #    #          



                #########################################################
                #                        -***-                          #
                #          Department of theory and spectroscopy        #
                #                                                       #
                #                      Frank Neese                      #
                #                                                       #
                #     Directorship, Architecture, Infrastructure        #
                #                    SHARK, DRIVERS                     #
                #        Core code/Algorithms in most modules           #
                #                                                       #
                #        Max Planck Institute fuer Kohlenforschung      #
                #                Kaiser Wilhelm Platz 1                 #
                #                 D-45470 Muelheim/Ruhr                 #
                #                      Germany                          #
                #                                                       #
                #                  All rights reserved                  #
                #                        -***-                          #
                #########################################################


                         Program Version 6.1.1  -  RELEASE   -
                                (GIT: $487d211c$)
                          ($2025-11-21 10:33:24 +0100$)


 With contributions from (in alphabetic order):
[Max-Planck-Institut fuer Kohlenforschung]                               
  Daniel Aravena         : Magnetic Suceptibility                        
  Michael Atanasov       : Ab Initio Ligand Field Theory (pilot matlab implementation)
  Alexander A. Auer      : GIAO ZORA, VPT2 properties, NMR spectrum      
  Ute Becker             : All parallelization in ORCA, NUMFREQ, NUMCALC 
  Giovanni Bistoni       : ED, misc. LED, open-shell LED, HFLD           
  Dmytro Bykov           : pre 5.0 version of the SCF Hessian            
  Marcos Casanova-Páez   : Triplet and SCS-CIS(D). UHF-(DLPNO)-IP/EA/STEOM-CCSD. UHF-CVS-IP/STEOM-CCSD   
  Vijay G. Chilkuri      : MRCI spin determinant printing, contributions to CSF-ICE 
  Pauline Colinet        : FMM embedding                                 
  Dipayan Datta          : RHF DLPNO-CCSD density                        
  Achintya Kumar Dutta   : EOM-CC, STEOM-CC                              
  Nicolas Foglia         : Exact transition moments, OPA infrastructure, MCD improvements    
  Dmitry Ganyushin       : Spin-Orbit,Spin-Spin,Magnetic field MRCI      
  Miquel Garcia-Rates    : C-PCM and meta-GGA Hessian, CCSD/C-PCM, Gaussian charge scheme 
  Tiago L. C. Gouveia    : GS-ROHF, GS-ROCIS                             
  Yang Guo               : DLPNO-NEVPT2, F12-NEVPT2, CIM, IAO-localization        
  Andreas Hansen         : Spin unrestricted coupled pair/coupled cluster methods 
  Ingolf Harden          : AUTO-CI MPn and infrastructure                
  Benjamin Helmich-Paris : MC-RPA, TRAH-(SCF,CASSCF), AVAS, COSX integrals, SCF dyn. polar., MC-PDFT, srDFT 
  Lee Huntington         : MR-EOM, pCC                                   
  Robert Izsak           : Overlap fitted RIJCOSX, COSX-SCS-MP3, EOM     
  Riya Kayal             : Wick's Theorem for AUTO-CI, AUTO-CI UHF-CCSDT 
  Emily Kempfer          : AUTO-CI RHF CISDT and CCSDT, approximate NEVPT4
  Christian Kollmar      : KDIIS, OOCD, Brueckner-CCSD(T), CCSD density, CASPT2, CASPT2-K, improved NEVPT2 
  Axel Koslowski         : Symmetry handling                             
  Simone Kossmann        : meta-GGA functionals, TD-DFT gradient, OOMP2, (MP2 Hessian; deprecated post 5.0) 
  Lucas Lang             : DCDCAS, Hyperfine gauge corrections, ICE-SOC+SSC
  Marvin Lechner         : AUTO-CI (C++ implementation), FIC-MRCC        
  Spencer Leger          : CASSCF response                               
  Dagmar Lenk            : GEPOL surface, SMD, ORCA-2-JSON               
  Dimitrios Liakos       : Extrapolation schemes; Compound Job, Property file
  Dimitrios Manganas     : Further ROCIS development; embedding schemes. LFT, Crystal Embedding 
  Dimitrios Pantazis     : SARC Basis sets                               
  Anastasios Papadopoulos: AUTO-CI, single reference methods and gradients 
  Taras Petrenko         : pre 6.0 DFT Hessian and TD-DFT gradient,  ECA, NRVS 
  Petra Pikulova         : Analytic Raman intensities                    
  Peter Pinski           : DLPNO-MP2, DLPNO-MP2 Gradient                 
  Shashank Vittal Rao    : ES-AILFT, MagRelax                            
  Christoph Reimann      : Effective Core Potentials                     
  Marius Retegan         : Local ZFS, SOC                                
  Christoph Riplinger    : Optimizer, TS searches, QM/MM, DLPNO-CCSD(T), (RO)-DLPNO pert. Triples 
  Michael Roemelt        : Original ROCIS implementation, recursive CI coupling coefficients
  Masaaki Saitow         : Open-shell DLPNO-CCSD energy and density      
  Barbara Sandhoefer     : DKH picture change effects                    
  Yorick L. A. Schmerwitz: GMF and freeze-and-release deltaSCF, NEB S-IDPP initial path                    
  Kantharuban Sivalingam : CASSCF convergence/infrastructure, NEVPT2, NEVPT3, NEVPT4(SD), FIC-MRCI and CEPA variants
  Bernardo de Souza      : ESD, SOC TD-DFT                               
  Georgi L. Stoychev     : AutoAux, RI-MP2 NMR, DLPNO-MP2 response, X2C  
  Van Anh Tran           : RI-MP2 g-tensors                              
  Willem Van den Heuvel  : Paramagnetic NMR                              
  Zikuan Wang            : NOTCH, Electric field optimization            
  Frank Wennmohs         : Technical directorship and infrastructure     
  Hang Xu                : AUTO-CI-Response properties                   
                                                                         
[FACCTs GmbH]                                                            
  Markus Bursch, Nicolas Foglia, Miquel Garcia-Rates, Ingolf Harden, Hagen Neugebauer, Anastasios Papadopoulos, 
  Christoph Riplinger, Bernardo de Souza, Georgi L. Stoychev                                                    
                                                                 
  APM, various basis sets, CI-OPT, improved COSX, DLPNO-Multilevel,           
  DOCKER, DRACO, updates on ESD, Fragmentator, GOAT, IRC, LR-CPCM, L-BFGS, MBIS, meta-GGA TD-DFT gradient, ML-optimized integration grids, 
  MM, NACMEs, nearIR, NEB, NEB-TS, NL-DFT gradient (VV10), 2- and 3-layer-ONIOM, interface openCOSMO-RS, QMMM,   
  Crystal-QMMM, RESP, rigid body optimization, SF, symmetry and pop. for TD-DFT, various functionals, SOLVATOR                                   
                                                                         
[Other institutions]                                                     
  V. Asgeirsson          : NEB                                           
  Christoph Bannwarth    : sTDA-DFT, sTD-DFT, PBEh-3c, B97-3c, D3        
  Giovanni Bistoni       : ETS/NOCV, ADLD/ADEX, COVALED                  
  Martin Brehm           : Molecular dynamics                            
  Ronald Cardenas        : ETS/NOCV                                      
  Martina Colucci        : COVALED                                       
  Sebastian Ehlert       : rSCAN, r2SCAN, r2SCAN-3c, D4, dhf basis sets  
  Marvin Friede          : D4 for Fr, Ra, Ac-Lr                          
  Lars Goerigk           : TD-DFT with DH, B97 family of functionals     
  Stefan Grimme          : VdW corrections, initial TS optimization, DFT functionals, gCP, sTDA/sTD-DF 
  Waldemar Hujo          : DFT-NL                                        
  H. Jonsson             : NEB                                           
  Holger Kruse           : gCP                                           
  Marcel Mueller         : wB97X-3c, vDZP basis set                      
  Hagen Neugebauer       : wr2SCAN, Native XTB                           
  Gianluca Regni         : ADLD/ADEX                                     
  Tobias Risthaus        : pre 6.0 range-separated hybrid DFT and stability analysis
  Lukas Wittmann         : regularized MP2, r2SCAN double-hybrids, wr2SCAN        
                                                                         
We gratefully acknowledge several colleagues who have allowed us to      
interface, adapt or use parts of their codes:                            
  Ed Valeev, F. Pavosevic, A. Kumar             : LibInt (2-el integral package), F12 methods 
  Garnet Chan, S. Sharma, J. Yang, R. Olivares  : DMRG                   
  Ulf Ekstrom                                   : XCFun DFT Library      
  Mihaly Kallay                                 : mrcc  (arbitrary order and MRCC methods)
  Frank Weinhold                                : gennbo (NPA and NBO analysis)           
  Simon Mueller                                 : openCOSMO-RS                            
  Christopher J. Cramer and Donald G. Truhlar   : smd solvation model                     
  S Lehtola, MJT Oliveira, MAL Marques          : LibXC Library                           
  Liviu Ungur et al                             : ANISO software                          


 Your calculation uses the libint2 library for the computation of 2-el integrals
 For citations please refer to: http://libint.valeyev.net

 Your ORCA version has been built with support for libXC version: 7.0.0
 For citations please refer to: https://libxc.gitlab.io

 This ORCA versions uses:
   CBLAS   interface :  Fast vector & matrix operations
   LAPACKE interface :  Fast linear algebra routines
   SCALAPACK package :  Parallel linear algebra routines
   Shared memory     :  Shared parallel matrices
   BLAS/LAPACK       :  OpenBLAS 0.3.29  USE64BITINT DYNAMIC_ARCH NO_AFFINITY Haswell SINGLE_THREADED
        Core in use  :  Haswell
   Copyright (c) 2011-2014, The OpenBLAS Project


  ***********************************
  * Starting time: Tue Jan 20 19:08:54 2026
  * Host name:     Maks
  * Process ID:    3016
  * Working dir.:  /home/maksy/Chemia_obliczeniowa/Cwiczenia5
  ***********************************

================================================================================

----- Orbital basis set information -----
Your calculation utilizes the basis: def2-TZVP
   F. Weigend and R. Ahlrichs, Phys. Chem. Chem. Phys. 7, 3297 (2005).

================================================================================
                                        WARNINGS
                       Please study these warnings very carefully!
================================================================================

WARNING: Gradients needed for Numerical Frequencies
  ===> : Setting RunTyp to EnGrad

WARNING: your system is open-shell and RHF/RKS was chosen
  ===> : WILL SWITCH to UHF/UKS


WARNING: The frozen-core approximation for MP2-gradient calculations is turned on by default.

WARNING: Post HF methods need fully converged wavefunctions
  ===> : Setting SCFConvForced true
         You can overwrite this default with %scf ConvForced false 


================================================================================
                                       INPUT FILE
================================================================================
NAME = rodnik_numfreq.inp
|  1> ! MP2 def2-TZVP NumFreq
|  2> * xyz 0 2
|  3>   O           0.01414480683226      0.00000000000000      0.00000000000000
|  4>   H           0.98585519316774      0.00000000000000      0.00000000000000
|  5> *
|  6> 
|  7>                          ****END OF INPUT****
================================================================================

                     *******************************
                     * Energy+Gradient Calculation *
                     *******************************

---------------------------------
CARTESIAN COORDINATES (ANGSTROEM)
---------------------------------
  O      0.014145    0.000000    0.000000
  H      0.985855    0.000000    0.000000

----------------------------
CARTESIAN COORDINATES (A.U.)
----------------------------
  NO LB      ZA    FRAG     MASS         X           Y           Z
   0 O     8.0000    0    15.999    0.026730    0.000000    0.000000
   1 H     1.0000    0     1.008    1.862996    0.000000    0.000000

--------------------------------
INTERNAL COORDINATES (ANGSTROEM)
--------------------------------
 O      0   0   0     0.000000000000     0.00000000     0.00000000
 H      1   0   0     0.971710386335     0.00000000     0.00000000

---------------------------
INTERNAL COORDINATES (A.U.)
---------------------------
 O      0   0   0     0.000000000000     0.00000000     0.00000000
 H      1   0   0     1.836266511661     0.00000000     0.00000000

---------------------
BASIS SET INFORMATION
---------------------
There are 2 groups of distinct atoms

 Group   1 Type O   : 11s6p2d1f contracted to 5s3p2d1f pattern {62111/411/11/1}
 Group   2 Type H   : 5s1p contracted to 3s1p pattern {311/1}

Atom   0O    basis set group =>   1
Atom   1H    basis set group =>   2
------------------------------------------------------------------------------
                             ORCA STARTUP CALCULATIONS
------------------------------------------------------------------------------
------------------------------------------------------------------------------
                   ___                                                        
                  /   \      - P O W E R E D   B Y -                         
                 /     \                                                     
                 |  |  |   _    _      __       _____    __    __             
                 |  |  |  | |  | |    /  \     |  _  \  |  |  /  |          
                  \  \/   | |  | |   /    \    | | | |  |  | /  /          
                 / \  \   | |__| |  /  /\  \   | |_| |  |  |/  /          
                |  |  |   |  __  | /  /__\  \  |    /   |      \           
                |  |  |   | |  | | |   __   |  |    \   |  |\   \          
                \     /   | |  | | |  |  |  |  | |\  \  |  | \   \       
                 \___/    |_|  |_| |__|  |__|  |_| \__\ |__|  \__/        
                                                                              
                      - O R C A' S   B I G   F R I E N D -                    
                                      &                                       
                       - I N T E G R A L  F E E D E R -                       
                                                                              
 v1 FN, 2020, v2 2021, v3 2022-2024                                           
------------------------------------------------------------------------------


----------------------
SHARK INTEGRAL PACKAGE
----------------------

Number of atoms                             ...      2
Number of basis functions                   ...     37
Number of shells                            ...     15
Maximum angular momentum                    ...      3
Integral batch strategy                     ... SHARK/LIBINT Hybrid
RI-J (if used) integral strategy            ... SPLIT-RIJ (Revised 2003 algorithm where possible)
Printlevel                                  ...      1
Contraction scheme used                     ... SEGMENTED contraction
Prescreening option                         ... SCHWARTZ
   Thresh                                   ... 2.500e-11
   Tcut                                     ... 2.500e-12
   Tpresel                                  ... 2.500e-12 
Coulomb Range Separation                    ... NOT USED
Exchange Range Separation                   ... NOT USED
Multipole approximations                    ... NOT USED
Finite Nucleus Model                        ... NOT USED
CABS basis                                  ... NOT available
Auxiliary Coulomb fitting basis             ... NOT available
Auxiliary J/K fitting basis                 ... NOT available
Auxiliary Correlation fitting basis         ... NOT available
Auxiliary 'external' fitting basis          ... NOT available

Checking pre-screening integrals            ... done (  0.0 sec) Dimension = 15
   => SHARK Basis and OBASIS are compatible. Storing Pre-screening
Shell pair information
Shell pair cut-off parameter TPreSel        ...   2.5e-12
Total number of shell pairs                 ...       120
Shell pairs after pre-screening             ...       120
Total number of primitive shell pairs       ...       376
Primitive shell pairs kept                  ...       367
          la=0 lb=0:     36 shell pairs
          la=1 lb=0:     32 shell pairs
          la=1 lb=1:     10 shell pairs
          la=2 lb=0:     16 shell pairs
          la=2 lb=1:      8 shell pairs
          la=2 lb=2:      3 shell pairs
          la=3 lb=0:      8 shell pairs
          la=3 lb=1:      4 shell pairs
          la=3 lb=2:      2 shell pairs
          la=3 lb=3:      1 shell pairs

Checking whether 4 symmetric matrices of dimension 37 fit in memory
:Max Core in MB      =   4096.00
 MB in use           =      1.99
 MB left             =   4094.01
 MB needed           =      0.02
 Data fit in memory  = YES
Calculating Nuclear repulsion               ... done (  0.0 sec) ENN=      4.356666066280 Eh

Diagonalization of the overlap matrix:
Smallest eigenvalue                        ... 1.055e-02
Time for diagonalization                   ...    0.000 sec
Threshold for overlap eigenvalues          ... 1.000e-07
Number of eigenvalues below threshold      ... 0
Time for construction of square roots      ...    0.000 sec
Total time needed                          ...    0.001 sec

-------------------
DFT GRID GENERATION
-------------------

General Integration Accuracy     IntAcc      ... 4.388
Radial Grid Type                 RadialGrid  ... OptM3 with GC (2021)
Angular Grid (max. ang.)         AngularGrid ... 4 (Lebedev-302)
Angular grid pruning method      GridPruning ... 4 (adaptive)
Weight generation scheme         WeightScheme... mBecke (2022)
Basis function cutoff            BFCut       ... 1.0000e-11
Integration weight cutoff        WCut        ... 1.0000e-14
Partially contracted basis set               ... off
Rotationally invariant grid construction     ... off
Angular grids for H and He will be reduced by one unit

Total number of grid points                  ...     9453
Total number of batches                      ...      149
Average number of points per batch           ...       63
Average number of grid points per atom       ...     4726
Grids setup in   0.0 sec
Initializing property integral containers    ... done (  0.0 sec)

SHARK setup successfully completed in   0.1 seconds

Maximum memory used throughout the entire STARTUP-calculation: 12.5 MB
-------------------------------------------------------------------------------
                                 ORCA GUESS
                   Start orbitals & Density for SCF / CASSCF
-------------------------------------------------------------------------------

------------
SCF SETTINGS
------------
Hamiltonian:
 Ab initio Hamiltonian  Method          .... Hartree-Fock(GTOs)


General Settings:
 Integral files         IntName         .... rodnik_numfreq
 Hartree-Fock type      HFTyp           .... UHF
 Total Charge           Charge          ....    0
 Multiplicity           Mult            ....    2
 Number of Electrons    NEL             ....    9
 Basis Dimension        Dim             ....   37
 Nuclear Repulsion      ENuc            ....      4.3566660663 Eh

Convergence Acceleration:
 AO-DIIS                CNVDIIS         .... on
   Start iteration      DIISMaxIt       ....    12
   Startup error        DIISStart       ....  0.200000
   # of expansion vecs  DIISMaxEq       ....     5
   Bias factor          DIISBfac        ....   1.050
   Max. coefficient     DIISMaxC        ....  10.000
 MO-DIIS                CNVKDIIS        .... off
 Trust-Rad. Augm. Hess. CNVTRAH         .... auto
   Auto Start mean grad. ratio tolernc. ....  1.125000
   Auto Start start iteration           ....    50
   Auto Start num. interpolation iter.  ....    10
   Max. Number of Micro iterations      ....    24
   Max. Number of Macro iterations      .... Maxiter - #DIIS iter
   Number of Davidson start vectors     ....     2
   Converg. threshold    (grad. norm)   ....   1.000e-05
   Grad. Scal. Fac. for Micro threshold ....   0.100
   Minimum threshold for Micro iter.    ....   1.000e-02
   NR start threshold (gradient norm)   ....   1.000e-04
   Initial trust radius                 ....   0.400
   Minimum AH scaling param. (alpha)    ....   1.000
   Maximum AH scaling param. (alpha)    .... 1000.000
   Quad. conv. algorithm                .... NR
   White noise on init. David. guess    .... on
   Maximum white noise                  ....   0.010
   Pseudo random numbers                .... off
   Inactive MOs                         .... canonical
   Orbital update algorithm             .... Taylor
   Preconditioner                       .... Diag
   Full preconditioner red. dimension   ....   250
 SOSCF                 CNVSOSCF           .... on
   Start iteration     SOSCFMaxIt         ....   150
   Startup grad/error  SOSCFStart         ....  0.003300
   Hessian update      SOSCFHessUp        .... L-BFGS
   Autom. constraints  SOSCFAutoConstrain .... off
 Level Shifting         CNVShift        .... on
   Level shift para.    LevelShift      ....    0.2500
   Turn off err/grad.   ShiftErr        ....    0.0010
 Zerner damping         CNVZerner       .... off
 Static damping         CNVDamp         .... on
   Fraction old density DampFac         ....    0.7000
   Max. Damping (<1)    DampMax         ....    0.9800
   Min. Damping (>=0)   DampMin         ....    0.0000
   Turn off err/grad.   DampErr         ....    0.1000

SCF Procedure:
 Maximum # iterations   MaxIter         ....   125
 SCF integral mode      SCFMode         .... Direct
   Integral package                     .... SHARK and LIBINT hybrid scheme
 Reset frequency        DirectResetFreq ....    20
 Integral Threshold     Thresh          ....  2.500e-11 Eh
 Primitive CutOff       TCut            ....  2.500e-12 Eh

Convergence Tolerance:
 Convergence Check Mode ConvCheckMode   .... Total+1el-Energy
 Convergence forced     ConvForced      .... 1
 Energy Change          TolE            ....  1.000e-08 Eh
 1-El. energy change                    ....  1.000e-05 Eh
 Orbital Gradient       TolG            ....  1.000e-05
 Orbital Rotation angle TolX            ....  1.000e-05
 DIIS Error             TolErr          ....  5.000e-07

------------------------------
INITIAL GUESS: MODEL POTENTIAL
------------------------------
Loading Hartree-Fock densities                     ... done
Calculating cut-offs                               ... done
Initializing the effective Hamiltonian             ... done
Setting up the integral package (SHARK)            ... done
Starting the Coulomb interaction                   ... done (   0.0 sec)
Making the grid                                    ... done (   0.0 sec)
Mapping shells                                     ... done
Starting the XC term evaluation                    ... done (   0.0 sec)
Transforming the Hamiltonian                       ... done (   0.0 sec)
Diagonalizing the Hamiltonian                      ... done (   0.0 sec)
Back transforming the eigenvectors                 ... done (   0.0 sec)
Now organizing SCF variables                       ... done
                      ------------------
                      INITIAL GUESS DONE (   0.0 sec)
                      ------------------
             **** ENERGY FILE WAS UPDATED (rodnik_numfreq.en.tmp) ****
Finished Guess after   0.0 sec
Maximum memory used throughout the entire GUESS-calculation: 5.7 MB

-------------------------------------------------------------------------------------------
                                      ORCA LEAN-SCF
                              memory conserving SCF solver
-------------------------------------------------------------------------------------------

----------------------------------------D-I-I-S--------------------------------------------
Iteration    Energy (Eh)           Delta-E    RMSDP     MaxDP     DIISErr   Damp  Time(sec)
-------------------------------------------------------------------------------------------
               ***  Starting incremental Fock matrix formation  ***
    1    -75.3908344270913773     0.00e+00  9.68e-04  1.30e-02  1.59e-01  0.700   0.0
    2    -75.4007876511681587    -9.95e-03  7.09e-04  9.74e-03  1.16e-01  0.700   0.0
                               ***Turning on AO-DIIS***
    3    -75.4071106687905655    -6.32e-03  4.36e-04  5.80e-03  8.43e-02  0.700   0.0
    4    -75.4113499436025876    -4.24e-03  1.17e-03  1.52e-02  5.89e-02  0.000   0.0
    5    -75.4219318340573324    -1.06e-02  2.23e-04  2.81e-03  7.85e-03  0.000   0.0
    6    -75.4220881534490815    -1.56e-04  1.42e-04  1.59e-03  3.34e-03  0.000   0.0
                              *** Initializing SOSCF ***
---------------------------------------S-O-S-C-F--------------------------------------
Iteration    Energy (Eh)           Delta-E    RMSDP     MaxDP     MaxGrad    Time(sec)
--------------------------------------------------------------------------------------
    7    -75.4221377665199810    -4.96e-05  1.14e-04  1.22e-03  2.02e-03     0.0
               *** Restarting incremental Fock matrix formation ***
    8    -75.4221576579945889    -1.99e-05  3.85e-05  3.55e-04  5.57e-04     0.0
    9    -75.4221607128099407    -3.05e-06  7.38e-05  7.31e-04  3.90e-04     0.0
   10    -75.4221633504755715    -2.64e-06  6.39e-06  6.69e-05  1.06e-04     0.0
   11    -75.4221634029341743    -5.25e-08  3.63e-06  3.72e-05  5.20e-05     0.0
   12    -75.4221634156180727    -1.27e-08  7.82e-07  9.60e-06  1.37e-05     0.0
   13    -75.4221634165236026    -9.06e-10  4.93e-07  5.81e-06  6.86e-06     0.0
                 **** Energy Check signals convergence ****

               *****************************************************
               *                     SUCCESS                       *
               *           SCF CONVERGED AFTER  13 CYCLES          *
               *****************************************************

             **** ENERGY FILE WAS UPDATED (rodnik_numfreq.en.tmp) ****

----------------
TOTAL SCF ENERGY
----------------

Total Energy       :        -75.42216341673587 Eh           -2052.34141 eV

Components:
Nuclear Repulsion  :          4.35666606628040 Eh             118.55091 eV
Electronic Energy  :        -79.77882948301627 Eh           -2170.89232 eV
One Electron Energy:       -112.67161984582475 Eh           -3065.95065 eV
Two Electron Energy:         32.89279036280848 Eh             895.05833 eV

Virial components:
Potential Energy   :       -150.81198252580293 Eh           -4103.80268 eV
Kinetic Energy     :         75.38981910906705 Eh            2051.46127 eV
Virial Ratio       :          2.00042902752721

---------------
SCF CONVERGENCE
---------------

  Last Energy change         ...    9.0553e-10  Tolerance :   1.0000e-08
  Last MAX-Density change    ...    5.8100e-06  Tolerance :   1.0000e-07
  Last RMS-Density change    ...    4.9252e-07  Tolerance :   5.0000e-09
  Last DIIS Error            ...    2.0201e-03  Tolerance :   5.0000e-07
  Last Orbital Gradient      ...    6.8566e-06  Tolerance :   1.0000e-05
  Last Orbital Rotation      ...    7.5999e-06  Tolerance :   1.0000e-05


----------------------
UHF SPIN CONTAMINATION
----------------------

Expectation value of <S**2>     :     0.756422
Ideal value S*(S+1) for S=0.5   :     0.750000
Deviation                       :     0.006422

----------------
ORBITAL ENERGIES
----------------
                 SPIN UP ORBITALS
  NO   OCC          E(Eh)            E(eV) 
   0   1.0000     -20.634859      -561.5031 
   1   1.0000      -1.385875       -37.7116 
   2   1.0000      -0.679467       -18.4892 
   3   1.0000      -0.656075       -17.8527 
   4   1.0000      -0.559299       -15.2193 
   5   0.0000       0.132119         3.5952 
   6   0.0000       0.538428        14.6514 
   7   0.0000       0.541716        14.7408 
   8   0.0000       0.578829        15.7507 
   9   0.0000       0.580861        15.8060 
  10   0.0000       0.724360        19.7108 
  11   0.0000       1.433061        38.9956 
  12   0.0000       1.467074        39.9211 
  13   0.0000       1.677328        45.6424 
  14   0.0000       1.679883        45.7119 
  15   0.0000       1.827641        49.7326 

                 SPIN DOWN ORBITALS
  NO   OCC          E(Eh)            E(eV) 
   0   1.0000     -20.594783      -560.4125 
   1   1.0000      -1.227847       -33.4114 
   2   1.0000      -0.635761       -17.2999 
   3   1.0000      -0.512073       -13.9342 
   4   0.0000       0.100013         2.7215 
   5   0.0000       0.139259         3.7894 
   6   0.0000       0.545885        14.8543 
   7   0.0000       0.591791        16.1035 
   8   0.0000       0.597879        16.2691 
   9   0.0000       0.682188        18.5633 
  10   0.0000       0.746506        20.3135 
  11   0.0000       1.467851        39.9423 
  12   0.0000       1.493080        40.6288 
  13   0.0000       1.761364        47.9291 
  14   0.0000       1.762668        47.9646 
*Only the first 10 virtual orbitals were printed.

                    ********************************
                    * MULLIKEN POPULATION ANALYSIS *
                    ********************************

--------------------------------------------
MULLIKEN ATOMIC CHARGES AND SPIN POPULATIONS
--------------------------------------------
   0 O :   -0.340130    1.048098
   1 H :    0.340130   -0.048098
Sum of atomic charges         :    0.0000000
Sum of atomic spin populations:    1.0000000

-----------------------------------------------------
MULLIKEN REDUCED ORBITAL CHARGES AND SPIN POPULATIONS
-----------------------------------------------------
CHARGE
  0 O s       :     3.913665  s :     3.913665
      pz      :     0.993190  p :     4.408781
      px      :     1.433318
      py      :     1.982273
      dz2     :     0.004685  d :     0.016710
      dxz     :     0.000846
      dyz     :     0.000000
      dx2y2   :     0.009547
      dxy     :     0.001632
      f0      :     0.000019  f :     0.000975
      f+1     :     0.000196
      f-1     :     0.000039
      f+2     :     0.000031
      f-2     :     0.000000
      f+3     :     0.000596
      f-3     :     0.000093

  1 H s       :     0.617601  s :     0.617601
      pz      :     0.005914  p :     0.042268
      px      :     0.020392
      py      :     0.015963


SPIN
  0 O s       :     0.019901  s :     0.019901
      pz      :     0.993190  p :     1.027963
      px      :     0.033746
      py      :     0.001028
      dz2     :    -0.000727  d :     0.000420
      dxz     :     0.000846
      dyz     :    -0.000000
      dx2y2   :     0.000206
      dxy     :     0.000095
      f0      :     0.000019  f :    -0.000186
      f+1     :    -0.000264
      f-1     :     0.000023
      f+2     :     0.000031
      f-2     :     0.000000
      f+3     :     0.000003
      f-3     :     0.000001

  1 H s       :    -0.052717  s :    -0.052717
      pz      :     0.005914  p :     0.004619
      px      :    -0.000148
      py      :    -0.001147



                     *******************************
                     * LOEWDIN POPULATION ANALYSIS *
                     *******************************

-------------------------------------------
LOEWDIN ATOMIC CHARGES AND SPIN POPULATIONS
-------------------------------------------
   0 O :   -0.150560    1.009605
   1 H :    0.150560   -0.009605

----------------------------------------------------
LOEWDIN REDUCED ORBITAL CHARGES AND SPIN POPULATIONS
----------------------------------------------------
CHARGE
  0 O s       :     3.706369  s :     3.706369
      pz      :     0.979442  p :     4.422388
      px      :     1.489258
      py      :     1.953688
      dz2     :     0.005899  d :     0.020436
      dxz     :     0.000316
      dyz     :     0.000000
      dx2y2   :     0.013638
      dxy     :     0.000584
      f0      :     0.000076  f :     0.001367
      f+1     :     0.000389
      f-1     :     0.000055
      f+2     :     0.000000
      f-2     :     0.000000
      f+3     :     0.000845
      f-3     :     0.000001

  1 H s       :     0.691563  s :     0.691563
      pz      :     0.020165  p :     0.157876
      px      :     0.092039
      py      :     0.045672


SPIN
  0 O s       :     0.013349  s :     0.013349
      pz      :     0.979442  p :     0.996959
      px      :     0.016200
      py      :     0.001317
      dz2     :     0.000047  d :    -0.000518
      dxz     :     0.000316
      dyz     :    -0.000000
      dx2y2   :    -0.000939
      dxy     :     0.000058
      f0      :     0.000076  f :    -0.000186
      f+1     :    -0.000239
      f-1     :     0.000052
      f+2     :     0.000000
      f-2     :     0.000000
      f+3     :    -0.000076
      f-3     :     0.000000

  1 H s       :    -0.033750  s :    -0.033750
      pz      :     0.020165  p :     0.024145
      px      :     0.005407
      py      :    -0.001427



                      *****************************
                      * MAYER POPULATION ANALYSIS *
                      *****************************

  NA   - Mulliken gross atomic population
  ZA   - Total nuclear charge
  QA   - Mulliken gross atomic charge
  VA   - Mayer's total valence
  BVA  - Mayer's bonded valence
  FA   - Mayer's free valence

  ATOM       NA         ZA         QA         VA         BVA        FA
  0 O      8.3401     8.0000    -0.3401     1.8905     0.8908     0.9997
  1 H      0.6599     1.0000     0.3401     0.8938     0.8908     0.0030

  Mayer bond orders larger than 0.100000
B(  0-O ,  1-H ) :   0.8908 

-------
TIMINGS
-------

Total SCF time: 0 days 0 hours 0 min 0 sec 

Total time                  ....       0.215 sec
Sum of individual times     ....       0.193 sec  ( 89.8%)

SCF preparation             ....       0.025 sec  ( 11.6%)
Fock matrix formation       ....       0.153 sec  ( 71.3%)
  Startup                   ....       0.000 sec  (  0.3% of F)
  Coulomb+Exchange Fock     ....       0.161 sec  (104.7% of F)
Diagonalization             ....       0.000 sec  (  0.0%)
Density matrix formation    ....       0.003 sec  (  1.5%)
Total Energy calculation    ....       0.000 sec  (  0.2%)
Population analysis         ....       0.001 sec  (  0.5%)
Orbital Transformation      ....       0.002 sec  (  0.8%)
Orbital Orthonormalization  ....       0.000 sec  (  0.0%)
DIIS solution               ....       0.005 sec  (  2.5%)
SOSCF solution              ....       0.003 sec  (  1.4%)
Finished LeanSCF after   0.2 sec

Maximum memory used throughout the entire LEANSCF-calculation: 11.4 MB

------------------------------------------------------------------------------
                                ORCA  MP2 
------------------------------------------------------------------------------

Freezing NCore=2 chemical core electrons
MP2 will be done in the AO integral direct mode
The Q1-step will be done using symmetric double matrices
Dimension of the basis                    ...   37
Memory devoted for MP2                    ... 4096 MB   
Memory needed for all in one shot         ...    2 MB
Number of MOs that can be treated together... 20639      
MP2 density construction                  ... relaxed
The MP2 gradient is requested => amplitudes will be stored on disk
Total number of MOs              ...    4
Number of MOs treated per batch  ...    4 
Number of batches necessary      ...    1 
OPERATORS   0/  0 PASS   0
OPERATORS   0/  1 PASS   0
Total number of MOs              ...    4
Number of MOs treated per batch  ...    3 
Number of batches necessary      ...    1 
OPERATORS   1/  0 PASS   0
OPERATORS   1/  1 PASS   0

Correlation energy components
 E2 and T2 for alpha/alpha pairs :     -0.031445953 Eh
 E2 and T2 for beta/beta   pairs :     -0.014502672 Eh
 E2 and T2 for alpha/beta  pairs :     -0.149497254 Eh

-----------------------------------------------
 MP2 CORRELATION ENERGY   :     -0.195445879 Eh
-----------------------------------------------


---------------------
MP2 DENSITY FORMATION
---------------------

Completing the external part of the density      ... done
Storing the unrelaxed density                    ... done

Calculating G(D)                                 ... done
Completing the Lagrangian                        ... done
Solving the Z-vector equations                   ... 
-------------------
SHARK CP-SCF DRIVER
-------------------

Dimension of the orbital basis          ...     37
Dimension of the CPSCF-problem          ...    292
Number of operators                     ...      2
Max. number of iterations               ...    128
Convergence Tolerance                   ... 1.0e-04
Number of perturbations                 ...      1
Perturbation type                       ... REAL

----------------------------
POPLE LINEAR EQUATION SOLVER
----------------------------

  ITERATION   0:   ||err||_max =   1.1780e-02 (   0.0 sec)
  ITERATION   1:   ||err||_max =   4.7159e-03 (   0.0 sec)
  ITERATION   2:   ||err||_max =   1.9101e-03 (   0.0 sec)
  ITERATION   3:   ||err||_max =   7.1960e-04 (   0.0 sec)
  ITERATION   4:   ||err||_max =   2.0090e-04 (   0.0 sec)
  ITERATION   5:   ||err||_max =   4.6544e-05 (   0.0 sec)
                                                 ... done
Finalizing the relaxed density                   ... done
Transforming P to the AO basis                   ... done
Storing the relaxed density                      ... done

------------------------------------
ENERGY WEIGHTED DENSITY FINALIZATION
------------------------------------

Gathering the parts of the W-matrix              ...                                                                                                           done
Forming the Z-density                            ... done
Transforming Z to the AO basis                   ... done
Calculating G(Z)                                 ... done
Finalizing the W-matrix                          ...                                                                                                           done
Transforming W to the AO basis and storing       ... done

                *********************************************
                * UNRELAXED MP2 DENSITY POPULATION ANALYSIS *
                *********************************************

------------------------------------------------------------------------------
                           ORCA POPULATION ANALYSIS
------------------------------------------------------------------------------
Input electron density              ... rodnik_numfreq.pmp2ur
Input spin density                  ... rodnik_numfreq.rmp2ur
BaseName (.gbw .S,...)              ... rodnik_numfreq

                    ********************************
                    * MULLIKEN POPULATION ANALYSIS *
                    ********************************

------------------------------------------
MULLIKEN ATOMIC CHARGES AND SPIN DENSITIES
------------------------------------------
   0 O :   -0.337282    1.046994
   1 H :    0.337282   -0.046994
Sum of atomic charges       :    0.0000000
Sum of atomic spin densities:    1.0000000

---------------------------------------------------
MULLIKEN REDUCED ORBITAL CHARGES AND SPIN DENSITIES
---------------------------------------------------
CHARGE
  0 O s       :     3.906685  s :     3.906685
      pz      :     0.992557  p :     4.389191
      px      :     1.425054
      py      :     1.971580
      dz2     :     0.008201  d :     0.038295
      dxz     :     0.004846
      dyz     :     0.004427
      dx2y2   :     0.014161
      dxy     :     0.006660
      f0      :     0.000267  f :     0.003112
      f+1     :     0.000444
      f-1     :     0.000308
      f+2     :     0.000355
      f-2     :     0.000312
      f+3     :     0.000957
      f-3     :     0.000468
  1 H s       :     0.618776  s :     0.618776
      pz      :     0.006751  p :     0.043941
      px      :     0.020301
      py      :     0.016890

SPIN
  0 O s       :     0.022868  s :     0.022868
      pz      :     0.984907  p :     1.018476
      px      :     0.032727
      py      :     0.000842
      dz2     :     0.001419  d :     0.005453
      dxz     :     0.002493
      dyz     :     0.001518
      dx2y2   :     0.000071
      dxy     :    -0.000049
      f0      :     0.000097  f :     0.000197
      f+1     :    -0.000173
      f-1     :     0.000104
      f+2     :     0.000099
      f-2     :     0.000066
      f+3     :     0.000002
      f-3     :     0.000002
  1 H s       :    -0.051760  s :    -0.051760
      pz      :     0.006099  p :     0.004766
      px      :    -0.000159
      py      :    -0.001174


                     *******************************
                     * LOEWDIN POPULATION ANALYSIS *
                     *******************************

-----------------------------------------
LOEWDIN ATOMIC CHARGES AND SPIN DENSITIES
-----------------------------------------
   0 O :   -0.148838    1.008612
   1 H :    0.148838   -0.008612

--------------------------------------------------
LOEWDIN REDUCED ORBITAL CHARGES AND SPIN DENSITIES
--------------------------------------------------
CHARGE
  0 O s       :     3.700089  s :     3.700089
      pz      :     0.978860  p :     4.402504
      px      :     1.480410
      py      :     1.943235
      dz2     :     0.009607  d :     0.042644
      dxz     :     0.004208
      dyz     :     0.004427
      dx2y2   :     0.018939
      dxy     :     0.005464
      f0      :     0.000324  f :     0.003601
      f+1     :     0.000668
      f-1     :     0.000325
      f+2     :     0.000327
      f-2     :     0.000312
      f+3     :     0.001265
      f-3     :     0.000381
  1 H s       :     0.690099  s :     0.690099
      pz      :     0.021057  p :     0.161063
      px      :     0.093504
      py      :     0.046502

SPIN
  0 O s       :     0.016024  s :     0.016024
      pz      :     0.971273  p :     0.987920
      px      :     0.015527
      py      :     0.001120
      dz2     :     0.002214  d :     0.004466
      dxz     :     0.001901
      dyz     :     0.001518
      dx2y2   :    -0.001085
      dxy     :    -0.000081
      f0      :     0.000156  f :     0.000202
      f+1     :    -0.000146
      f-1     :     0.000133
      f+2     :     0.000069
      f-2     :     0.000066
      f+3     :    -0.000075
      f-3     :    -0.000000
  1 H s       :    -0.032801  s :    -0.032801
      pz      :     0.020297  p :     0.024189
      px      :     0.005339
      py      :    -0.001447


                      *****************************
                      * MAYER POPULATION ANALYSIS *
                      *****************************

  NA   - Mulliken gross atomic population
  ZA   - Total nuclear charge
  QA   - Mulliken gross atomic charge
  VA   - Mayer's total valence
  BVA  - Mayer's bonded valence
  FA   - Mayer's free valence

  ATOM       NA         ZA         QA         VA         BVA        FA
  0 O      8.3373     8.0000    -0.3373     2.1222     0.8531     1.2691
  1 H      0.6627     1.0000     0.3373     0.9000     0.8531     0.0470

  Mayer bond orders larger than 0.100000
B(  0-O ,  1-H ) :   0.8531 


                *******************************************
                * RELAXED MP2 DENSITY POPULATION ANALYSIS *
                *******************************************

------------------------------------------------------------------------------
                           ORCA POPULATION ANALYSIS
------------------------------------------------------------------------------
Input electron density              ... rodnik_numfreq.pmp2re
Input spin density                  ... rodnik_numfreq.rmp2re
BaseName (.gbw .S,...)              ... rodnik_numfreq

                    ********************************
                    * MULLIKEN POPULATION ANALYSIS *
                    ********************************

------------------------------------------
MULLIKEN ATOMIC CHARGES AND SPIN DENSITIES
------------------------------------------
   0 O :   -0.331940    1.029003
   1 H :    0.331940   -0.029003
Sum of atomic charges       :    0.0000000
Sum of atomic spin densities:    1.0000000

---------------------------------------------------
MULLIKEN REDUCED ORBITAL CHARGES AND SPIN DENSITIES
---------------------------------------------------
CHARGE
  0 O s       :     3.915217  s :     3.915217
      pz      :     0.991738  p :     4.377083
      px      :     1.415196
      py      :     1.970150
      dz2     :     0.007265  d :     0.036592
      dxz     :     0.004931
      dyz     :     0.004427
      dx2y2   :     0.013198
      dxy     :     0.006772
      f0      :     0.000264  f :     0.003046
      f+1     :     0.000406
      f-1     :     0.000302
      f+2     :     0.000356
      f-2     :     0.000312
      f+3     :     0.000936
      f-3     :     0.000471
  1 H s       :     0.622977  s :     0.622977
      pz      :     0.007487  p :     0.045084
      px      :     0.019385
      py      :     0.018212

SPIN
  0 O s       :     0.015937  s :     0.015937
      pz      :     0.984087  p :     1.006942
      px      :     0.022108
      py      :     0.000747
      dz2     :     0.001769  d :     0.005894
      dxz     :     0.002579
      dyz     :     0.001518
      dx2y2   :     0.000137
      dxy     :    -0.000109
      f0      :     0.000094  f :     0.000230
      f+1     :    -0.000141
      f-1     :     0.000105
      f+2     :     0.000100
      f-2     :     0.000066
      f+3     :     0.000006
      f-3     :     0.000000
  1 H s       :    -0.034528  s :    -0.034528
      pz      :     0.006835  p :     0.005525
      px      :    -0.000291
      py      :    -0.001019


                     *******************************
                     * LOEWDIN POPULATION ANALYSIS *
                     *******************************

-----------------------------------------
LOEWDIN ATOMIC CHARGES AND SPIN DENSITIES
-----------------------------------------
   0 O :   -0.149837    0.998563
   1 H :    0.149837    0.001437

--------------------------------------------------
LOEWDIN REDUCED ORBITAL CHARGES AND SPIN DENSITIES
--------------------------------------------------
CHARGE
  0 O s       :     3.703335  s :     3.703335
      pz      :     0.977981  p :     4.401092
      px      :     1.481107
      py      :     1.942004
      dz2     :     0.008994  d :     0.041812
      dxz     :     0.004255
      dyz     :     0.004427
      dx2y2   :     0.018607
      dxy     :     0.005530
      f0      :     0.000320  f :     0.003598
      f+1     :     0.000654
      f-1     :     0.000320
      f+2     :     0.000327
      f-2     :     0.000312
      f+3     :     0.001284
      f-3     :     0.000381
  1 H s       :     0.687775  s :     0.687775
      pz      :     0.021893  p :     0.162388
      px      :     0.092824
      py      :     0.047671

SPIN
  0 O s       :     0.012364  s :     0.012364
      pz      :     0.970394  p :     0.980851
      px      :     0.009508
      py      :     0.000950
      dz2     :     0.002451  d :     0.005096
      dxz     :     0.001948
      dyz     :     0.001518
      dx2y2   :    -0.000706
      dxy     :    -0.000116
      f0      :     0.000151  f :     0.000252
      f+1     :    -0.000113
      f-1     :     0.000131
      f+2     :     0.000069
      f-2     :     0.000066
      f+3     :    -0.000052
      f-3     :    -0.000000
  1 H s       :    -0.021772  s :    -0.021772
      pz      :     0.021133  p :     0.023210
      px      :     0.003317
      py      :    -0.001240


                      *****************************
                      * MAYER POPULATION ANALYSIS *
                      *****************************

  NA   - Mulliken gross atomic population
  ZA   - Total nuclear charge
  QA   - Mulliken gross atomic charge
  VA   - Mayer's total valence
  BVA  - Mayer's bonded valence
  FA   - Mayer's free valence

  ATOM       NA         ZA         QA         VA         BVA        FA
  0 O      8.3319     8.0000    -0.3319     2.1181     0.8581     1.2600
  1 H      0.6681     1.0000     0.3319     0.9035     0.8581     0.0454

  Mayer bond orders larger than 0.100000
B(  0-O ,  1-H ) :   0.8581 


----------------------------------
MP2 DERIVATIVE INTEGRAL GENERATION
----------------------------------

Input SCF Electron Density              ... rodnik_numfreq.scfp
Input Correlated Electron Density       ... rodnik_numfreq.pmp2re
Input Energy Weighted Density           ... rodnik_numfreq.wmp2.tmp
Input Wavefunction Amplitudes           ... rodnik_numfreq.mp2taa.tmp

Nuclear repulsion gradient              ... done (  0.0 sec)
HCore & Overlap gradient  (SHARK)       ... done (  0.0 sec)
Analytic two-electron gradient terms    ... 
  Batch handling in the gradient evaluation:
  General contraction                   ... not used
  Memory available                      ... 4093.5 MB
  Memory per occupied orbital in Q2     ...    0.1 MB
  Memory per occupied orbital in Q3     ...    0.0 MB
  Total memory requirement per |i>      ...    0.1 MB
  Number of orbitals treated per batch  ...      7
  Number of batches to be done          ...      1
done (  0.1 sec)

---------------------------------------
MP2 TOTAL ENERGY:      -75.617609295 Eh
---------------------------------------

The final MP2 gradient
  0:  -0.00000209  -0.00000000   0.00000000
  1:   0.00000209   0.00000000  -0.00000000

-----------------------------------
NORM OF THE MP2 GRADIENT:  0.000003
-----------------------------------

Maximum memory used throughout the entire MP2-calculation: 13.6 MB

-------------------------   --------------------
FINAL SINGLE POINT ENERGY       -75.617609295305
-------------------------   --------------------


------------------------------------------------------------------------------
                              ORCA PROPERTY CALCULATIONS
------------------------------------------------------------------------------

GBWName                                 ... rodnik_numfreq.gbw
Number of atoms                         ...      2
Number of basis functions               ...     37
Max core memory                         ...   4096 MB

Electric properties:
Dipole moment                           ... YES
Quadrupole moment                       ...  NO
Static polarizability (Dipole/Dipole)   ...  NO
Static polarizability (Dipole/Quad.)    ...  NO
Static polarizability (Quad./Quad.)     ...  NO
Static polarizability (Velocity)        ...  NO
Static hyperpolarizability              ...  NO

Atomic electric properties:
Dipole moment                           ...  NO
Quadrupole moment                       ...  NO
Static polarizability                   ...  NO

Choice of electric origin               ... Center of mass
Position of electric origin             ...     0.135565     0.000000     0.000000

General magnetic properties:
Magnetizability                         ...  NO

EPR properties:
g-Tensor (aka g-matrix)                 ...  NO
Zero-Field splitting spin-orbit         ...  NO
Zero-field splitting spin-spin          ...  NO
Hyperfine couplings                     ...  NO (   0 nuclei)
Quadrupole couplings                    ...  NO (   0 nuclei)
Contact density                         ...  NO (   0 nuclei)

NMR properties:
Chemical shifts                         ...  NO (   0 nuclei)
Spin-rotation constants                 ...  NO (   0 nuclei)
Spin-spin couplings                     ...  NO (   0 nuclei,    0 pairs)

Choice of magnetic origin               ... GIAO
Position of magnetic origin             ...     0.000000     0.000000     0.000000

Properties with geometric perturbations:
SCF Hessian                             ...  NO
IR spectrum                             ...  NO
VCD spectrum                            ...  NO
X-ray spectroscopy properties:
SCF XES/XAS/RIXS spectra                ...  NO

SCF SOC stabilization energy            ...  NO
Diagonal Born-Oppenheimer correction    ...  NO

-------------
DIPOLE MOMENT
-------------

Method             : SCF
Type of density    : Electron Density
Multiplicity       :   2
Irrep              :   0
Energy             :   -75.4221634167358701 Eh
Basis              : AO
                                X                 Y                 Z
Electronic contribution:     -0.127800517       0.000000000       0.000000000
Nuclear contribution   :      0.856751618       0.000000000       0.000000000
                        -----------------------------------------
Total Dipole Moment    :      0.728951102       0.000000000       0.000000000
                        -----------------------------------------
Magnitude (a.u.)       :      0.728951102
Magnitude (Debye)      :      1.852846452



--------------------
Rotational spectrum 
--------------------
 
Rotational constants in cm-1:             0.000000            18.827696            18.827696 
Rotational constants in MHz :             0.000000        564440.122819        564440.122819 

Dipole components along the rotational axes: 
x,y,z [a.u.] :     0.728951     0.000000     0.000000 
x,y,z [Debye]:     1.852846     0.000000     0.000000 

 

-------------
DIPOLE MOMENT
-------------

Method             : MP2
Type of density    : Electron Density
Multiplicity       :   2
Level              : Unrelaxed density
Irrep              :   0
Energy             :     0.0000000000000000 Eh
Basis              : AO
                                X                 Y                 Z
Electronic contribution:     -0.136463051       0.000000000       0.000000000
Nuclear contribution   :      0.856751618       0.000000000       0.000000000
                        -----------------------------------------
Total Dipole Moment    :      0.720288567       0.000000000       0.000000000
                        -----------------------------------------
Magnitude (a.u.)       :      0.720288567
Magnitude (Debye)      :      1.830828040



--------------------
Rotational spectrum 
--------------------
 
Rotational constants in cm-1:             0.000000            18.827696            18.827696 
Rotational constants in MHz :             0.000000        564440.122819        564440.122819 

Dipole components along the rotational axes: 
x,y,z [a.u.] :     0.720289     0.000000     0.000000 
x,y,z [Debye]:     1.830828     0.000000     0.000000 

 

-------------
DIPOLE MOMENT
-------------

Method             : MP2
Type of density    : Electron Density
Multiplicity       :   2
Level              : Relaxed density
Irrep              :   0
Energy             :     0.0000000000000000 Eh
Basis              : AO
                                X                 Y                 Z
Electronic contribution:     -0.146303182       0.000000000       0.000000000
Nuclear contribution   :      0.856751618       0.000000000       0.000000000
                        -----------------------------------------
Total Dipole Moment    :      0.710448436       0.000000000       0.000000000
                        -----------------------------------------
Magnitude (a.u.)       :      0.710448436
Magnitude (Debye)      :      1.805816414



--------------------
Rotational spectrum 
--------------------
 
Rotational constants in cm-1:             0.000000            18.827696            18.827696 
Rotational constants in MHz :             0.000000        564440.122819        564440.122819 

Dipole components along the rotational axes: 
x,y,z [a.u.] :     0.710448     0.000000     0.000000 
x,y,z [Debye]:     1.805816     0.000000     0.000000 

 

Dipole moment calculation done in   0.0 sec 

Maximum memory used throughout the entire PROP-calculation: 2.3 MB

----------------------------------------------------------------------------
                           ORCA NUMERICAL FREQUENCIES
----------------------------------------------------------------------------

Number of atoms                ... 2
Central differences            ... used
Translation invariance         ... used
Number of displacements        ... 12 - 6
Numerical increment            ... 5.000e-03 bohr
IR-spectrum generation         ... on
Raman-spectrum generation      ... off
Surface Crossing Hessian       ... off

The output will be reduced. Please look at the following files:
SCF program output             ... >rodnik_numfreq.lastscf
Integral program output        ... >rodnik_numfreq.lastint
Gradient program output        ... >rodnik_numfreq.lastgrad
Dipole moment program output   ... >rodnik_numfreq.lastmom

	<< Calculating gradient on displaced geometry   1 (of   6) >>
	<< Calculating gradient on displaced geometry   2 (of   6) >>
	<< Calculating gradient on displaced geometry   3 (of   6) >>
	<< Calculating gradient on displaced geometry   4 (of   6) >>
	<< Calculating gradient on displaced geometry   5 (of   6) >>
	<< Calculating gradient on displaced geometry   6 (of   6) >>

-----------------------
VIBRATIONAL FREQUENCIES
-----------------------

Scaling factor for frequencies =  1.000000000  (already applied!)

     0:       0.00 cm**-1
     1:       0.00 cm**-1
     2:       0.00 cm**-1
     3:       0.00 cm**-1
     4:       0.00 cm**-1
     5:    3779.54 cm**-1


------------
NORMAL MODES
------------

These modes are the Cartesian displacements weighted by the diagonal matrix
M(i,i)=1/sqrt(m[i]) where m[i] is the mass of the displaced atom
Thus, these vectors are normalized but *not* orthogonal

                  0          1          2          3          4          5    
      0       0.000000   0.000000   0.000000   0.000000   0.000000  -0.062879
      1       0.000000   0.000000   0.000000   0.000000   0.000000   0.000000
      2       0.000000   0.000000   0.000000   0.000000   0.000000  -0.000000
      3       0.000000   0.000000   0.000000   0.000000   0.000000   0.998021
      4       0.000000   0.000000   0.000000   0.000000   0.000000   0.000000
      5       0.000000   0.000000   0.000000   0.000000   0.000000   0.000000


-----------
IR SPECTRUM
-----------

 Mode   freq       eps      Int      T**2         TX        TY        TZ
       cm**-1   L/(mol*cm) km/mol    a.u.
----------------------------------------------------------------------------
  5:   3779.54   0.003453   17.45  0.000285  ( 0.016885  0.000000  0.000000)

* The epsilon (eps) is given for a Dirac delta lineshape.
** The dipole moment derivative (T) already includes vibrational overlap.

The first frequency considered to be a vibration is 5
The total number of vibrations considered is 1


--------------------------
THERMOCHEMISTRY AT 298.15K
--------------------------

Temperature         ...   298.15 K
Pressure            ...     1.00 atm
Total Mass          ...    17.01 AMU
Quasi RRHO          ...     True
Cut-Off Frequency   ...     1.00 cm^-1
The molecule is recognized as being linear

Throughout the following assumptions are being made:
  (1) The electronic state is orbitally nondegenerate
      but the spin degeneracy is treated
  (2) There are no thermally accessible electronically excited states
  (3) Hindered rotations indicated by low frequency modes are not
      treated as such but are treated as vibrations and this may
      cause some error
  (4) All equations used are the standard statistical mechanics
      equations for an ideal gas
  (5) All vibrations are strictly harmonic

freq.    3779.54  E(vib)   ...       0.00 

------------
INNER ENERGY
------------

The inner energy is: U= E(el) + E(ZPE) + E(vib) + E(rot) + E(trans)
    E(el)   - is the total energy from the electronic structure calculation
              = E(kin-el) + E(nuc-el) + E(el-el) + E(nuc-nuc)
    E(ZPE)  - the the zero temperature vibrational energy from the frequency calculation
    E(vib)  - the the finite temperature correction to E(ZPE) due to population
              of excited vibrational states
    E(rot)  - is the rotational thermal energy
    E(trans)- is the translational thermal energy

Summary of contributions to the inner energy U:
Electronic energy                ...    -75.61760930 Eh
Zero point energy                ...      0.00861042 Eh       5.40 kcal/mol
Thermal vibrational correction   ...      0.00000000 Eh       0.00 kcal/mol
Thermal rotational correction    ...      0.00094418 Eh       0.59 kcal/mol
Thermal translational correction ...      0.00141627 Eh       0.89 kcal/mol
-----------------------------------------------------------------------
Total thermal energy                    -75.60663842 Eh


Summary of corrections to the electronic energy:
(perhaps to be used in another calculation)
Total thermal correction                  0.00236045 Eh       1.48 kcal/mol
Non-thermal (ZPE) correction              0.00861042 Eh       5.40 kcal/mol
-----------------------------------------------------------------------
Total correction                          0.01097087 Eh       6.88 kcal/mol


--------
ENTHALPY
--------

The enthalpy is H = U + kB*T
                kB is Boltzmann's constant
Total thermal energy              ...    -75.60663842 Eh 
Thermal Enthalpy correction       ...      0.00094421 Eh       0.59 kcal/mol
-----------------------------------------------------------------------
Total Enthalpy                    ...    -75.60569421 Eh


Note: Rotational entropy computed according to Herzberg 
Infrared and Raman Spectra, Chapter V,1, Van Nostrand Reinhold, 1945 
Point Group:  C(inf)v, Symmetry Number:   1  
Rotational constants in cm-1:     0.000000    18.827712    18.827712 

Vibrational entropy computed according to the QRRHO of S. Grimme
Chem.Eur.J. 2012 18 9955 using a reference frequency of 100.0 cm-1


-------
ENTROPY
-------

The entropy contributions are T*S = T*(S(el)+S(vib)+S(rot)+S(trans))
     S(el)   - electronic entropy
     S(vib)  - vibrational entropy
     S(rot)  - rotational entropy
     S(trans)- translational entropy
The entropies will be listed as multiplied by the temperature to get
units of energy

Electronic entropy                ...      0.00065446 Eh      0.41 kcal/mol
Vibrational entropy               ...      0.00000000 Eh      0.00 kcal/mol
Rotational entropy                ...      0.00320878 Eh      2.01 kcal/mol
Translational entropy             ...      0.01636225 Eh     10.27 kcal/mol
-----------------------------------------------------------------------
Final entropy term                ...      0.02022549 Eh     12.69 kcal/mol


-------------------
GIBBS FREE ENERGY
-------------------

The Gibbs free energy is G = H - T*S

Total enthalpy                    ...    -75.60569421 Eh 
Total entropy correction          ...     -0.02022549 Eh    -12.69 kcal/mol
-----------------------------------------------------------------------
Final Gibbs free energy         ...    -75.62591970 Eh

For completeness - the Gibbs free energy minus the electronic energy
G-E(el)                           ...     -0.00831041 Eh     -5.21 kcal/mol



--------------------------------
SUGGESTED CITATIONS FOR THIS RUN
--------------------------------

Below you find a list of papers that are relevant to this ORCA run
We neither can nor want to force you to cite these papers, but we appreciate if you do
You receive ORCA, which is the product of decades of hard work by many enthusiastic individuals, for free
The only thing we kindly ask in return is that you cite our papers,
We deeply appreciate it, if you show your appreciation for ORCA by not just citing the generic ORCA reference.

Please note that relegating all ORCA citations to the supporting information does *not* help us.
SI sections are not indexed - citations you put there will not count into any citation statistics
But we need these citations in order to attract the funding resources that allow us to do what we are doing

Therefore, if you are a happy ORCA user, please consider citing a few of the papers listed below in the main body of your paper

In addition to the list printed below, the program has created the file rodnik_numfreq.bibtex that contains the list in bibtex format
You can import this file easily into all common literature databanks and citation aid programs

It goes without saying that in many instances, there are alternative algorithms to achieve similar
results as the ones you have gotten from ORCA. It is, of course, also the case that in some instances
ORCA just re-implements algorithms worked out by others. We are fully aware of that and we are also
fully appreciative of our colleagues work. Hence this citation list should not be read as indicating
that the listed papers, which are focused on our own work, are the only ones worth citing. It simply
meant to make it easier for users to cite ORCA specific papers. It is not a substitute for doing your
own literature research and citing the relevant literature in a scientifically appropriate manner.

List of essential papers. We consider these as the minimum necessary citations

  1. Neese, F.
     Software update: the ORCA program system, version 6.0
     WIRES Comput. Molec. Sci. 2025 15(1), e70019
     doi.org/10.1002/wcms.70019

List of papers to cite with high priority. The work reported in these papers was absolutely
necessary for this run to complete.
Our perspective: the developers of density functionals and basis sets usually get cited in chemistry papers
Good! But without the algorithms to do something with them, the functionals or basis sets would not do anything.
Hence, in our opinion, the algorithm design and method developments papers are equally worthy of getting cited

  1. Neese, F.
     The SHARK Integral Generation and Digestion System
     J. Comp. Chem. 2022 44(3), 381
     doi.org/10.1002/jcc.26942

List of suggested additional citations. These are papers that are important in the 'surrounding' of 
of this run, or papers that preceded the highly important papers. If you like your results we are grateful for a citation.

  1. Neese, F.
     The ORCA program system
     WIRES Comput. Molec. Sci. 2012 2(1), 73-78
     doi.org/10.1002/wcms.81
  2. Neese, F.
     Software update: the ORCA program system, version 4.0
     WIRES Comput. Molec. Sci. 2018 8(1), 1-6
     doi.org/10.1002/wcms.1327
  3. Neese, F.; Wennmohs, F.; Becker, U.; Riplinger, C.
     The ORCA quantum chemistry program package
     J. Chem. Phys. 2020 152(22), 224108
     doi.org/10.1063/5.0004608
  4. Neese, F.
     Software update: The ORCA program system—Version 5.0
     WIRES Comput. Molec. Sci. 2022 12(1), e1606
     doi.org/10.1002/wcms.1606

List of optional additional citations

  1. Neese, F.
     Approximate second-order SCF convergence for spin unrestricted wavefunctions
     Chem. Phys. Lett. 2000 325(1-3), 93-98
     doi.org/10.1016/s0009-2614(00)00662-x

Timings for individual modules:

Sum of individual times          ...        8.274 sec (=   0.138 min)
Startup calculation              ...        0.173 sec (=   0.003 min)   2.1 %
SCF iterations                   ...        0.555 sec (=   0.009 min)   6.7 %
Property calculations            ...        0.037 sec (=   0.001 min)   0.4 %
MP2 module                       ...        0.774 sec (=   0.013 min)   9.3 %
Numerical frequency calculation  ...        6.736 sec (=   0.112 min)  81.4 %
                             ****ORCA TERMINATED NORMALLY****
TOTAL RUN TIME: 0 days 0 hours 0 minutes 7 seconds 633 msec
