
                                 *****************
                                 * O   R   C   A *
                                 *****************

                                            #,                                       
                                            ###                                      
                                            ####                                     
                                            #####                                    
                                            ######                                   
                                           ########,                                 
                                     ,,################,,,,,                         
                               ,,#################################,,                 
                          ,,##########################################,,             
                       ,#########################################, ''#####,          
                    ,#############################################,,   '####,        
                  ,##################################################,,,,####,       
                ,###########''''           ''''###############################       
              ,#####''   ,,,,##########,,,,          '''####'''          '####       
            ,##' ,,,,###########################,,,                        '##       
           ' ,,###''''                  '''############,,,                           
         ,,##''                                '''############,,,,        ,,,,,,###''
      ,#''                                            '''#######################'''  
     '                                                          ''''####''''         
             ,#######,   #######,   ,#######,      ##                                
            ,#'     '#,  ##    ##  ,#'     '#,    #''#        ,####,    ,#,          
            ##       ##  ##   ,#'  ##            #'  '#       #'       ,# #          
            ##       ##  #######   ##           ,######,      #####,      #          
            '#,     ,#'  ##    ##  '#,     ,#' ,#      #,     #,   #      #          
             '#######'   ##     ##  '#######'  #'      '#     '####' #    #          



                #########################################################
                #                        -***-                          #
                #          Department of theory and spectroscopy        #
                #                                                       #
                #                      Frank Neese                      #
                #                                                       #
                #     Directorship, Architecture, Infrastructure        #
                #                    SHARK, DRIVERS                     #
                #        Core code/Algorithms in most modules           #
                #                                                       #
                #        Max Planck Institute fuer Kohlenforschung      #
                #                Kaiser Wilhelm Platz 1                 #
                #                 D-45470 Muelheim/Ruhr                 #
                #                      Germany                          #
                #                                                       #
                #                  All rights reserved                  #
                #                        -***-                          #
                #########################################################


                         Program Version 6.1.1  -  RELEASE   -
                                (GIT: $487d211c$)
                          ($2025-11-21 10:33:24 +0100$)


 With contributions from (in alphabetic order):
[Max-Planck-Institut fuer Kohlenforschung]                               
  Daniel Aravena         : Magnetic Suceptibility                        
  Michael Atanasov       : Ab Initio Ligand Field Theory (pilot matlab implementation)
  Alexander A. Auer      : GIAO ZORA, VPT2 properties, NMR spectrum      
  Ute Becker             : All parallelization in ORCA, NUMFREQ, NUMCALC 
  Giovanni Bistoni       : ED, misc. LED, open-shell LED, HFLD           
  Dmytro Bykov           : pre 5.0 version of the SCF Hessian            
  Marcos Casanova-Páez   : Triplet and SCS-CIS(D). UHF-(DLPNO)-IP/EA/STEOM-CCSD. UHF-CVS-IP/STEOM-CCSD   
  Vijay G. Chilkuri      : MRCI spin determinant printing, contributions to CSF-ICE 
  Pauline Colinet        : FMM embedding                                 
  Dipayan Datta          : RHF DLPNO-CCSD density                        
  Achintya Kumar Dutta   : EOM-CC, STEOM-CC                              
  Nicolas Foglia         : Exact transition moments, OPA infrastructure, MCD improvements    
  Dmitry Ganyushin       : Spin-Orbit,Spin-Spin,Magnetic field MRCI      
  Miquel Garcia-Rates    : C-PCM and meta-GGA Hessian, CCSD/C-PCM, Gaussian charge scheme 
  Tiago L. C. Gouveia    : GS-ROHF, GS-ROCIS                             
  Yang Guo               : DLPNO-NEVPT2, F12-NEVPT2, CIM, IAO-localization        
  Andreas Hansen         : Spin unrestricted coupled pair/coupled cluster methods 
  Ingolf Harden          : AUTO-CI MPn and infrastructure                
  Benjamin Helmich-Paris : MC-RPA, TRAH-(SCF,CASSCF), AVAS, COSX integrals, SCF dyn. polar., MC-PDFT, srDFT 
  Lee Huntington         : MR-EOM, pCC                                   
  Robert Izsak           : Overlap fitted RIJCOSX, COSX-SCS-MP3, EOM     
  Riya Kayal             : Wick's Theorem for AUTO-CI, AUTO-CI UHF-CCSDT 
  Emily Kempfer          : AUTO-CI RHF CISDT and CCSDT, approximate NEVPT4
  Christian Kollmar      : KDIIS, OOCD, Brueckner-CCSD(T), CCSD density, CASPT2, CASPT2-K, improved NEVPT2 
  Axel Koslowski         : Symmetry handling                             
  Simone Kossmann        : meta-GGA functionals, TD-DFT gradient, OOMP2, (MP2 Hessian; deprecated post 5.0) 
  Lucas Lang             : DCDCAS, Hyperfine gauge corrections, ICE-SOC+SSC
  Marvin Lechner         : AUTO-CI (C++ implementation), FIC-MRCC        
  Spencer Leger          : CASSCF response                               
  Dagmar Lenk            : GEPOL surface, SMD, ORCA-2-JSON               
  Dimitrios Liakos       : Extrapolation schemes; Compound Job, Property file
  Dimitrios Manganas     : Further ROCIS development; embedding schemes. LFT, Crystal Embedding 
  Dimitrios Pantazis     : SARC Basis sets                               
  Anastasios Papadopoulos: AUTO-CI, single reference methods and gradients 
  Taras Petrenko         : pre 6.0 DFT Hessian and TD-DFT gradient,  ECA, NRVS 
  Petra Pikulova         : Analytic Raman intensities                    
  Peter Pinski           : DLPNO-MP2, DLPNO-MP2 Gradient                 
  Shashank Vittal Rao    : ES-AILFT, MagRelax                            
  Christoph Reimann      : Effective Core Potentials                     
  Marius Retegan         : Local ZFS, SOC                                
  Christoph Riplinger    : Optimizer, TS searches, QM/MM, DLPNO-CCSD(T), (RO)-DLPNO pert. Triples 
  Michael Roemelt        : Original ROCIS implementation, recursive CI coupling coefficients
  Masaaki Saitow         : Open-shell DLPNO-CCSD energy and density      
  Barbara Sandhoefer     : DKH picture change effects                    
  Yorick L. A. Schmerwitz: GMF and freeze-and-release deltaSCF, NEB S-IDPP initial path                    
  Kantharuban Sivalingam : CASSCF convergence/infrastructure, NEVPT2, NEVPT3, NEVPT4(SD), FIC-MRCI and CEPA variants
  Bernardo de Souza      : ESD, SOC TD-DFT                               
  Georgi L. Stoychev     : AutoAux, RI-MP2 NMR, DLPNO-MP2 response, X2C  
  Van Anh Tran           : RI-MP2 g-tensors                              
  Willem Van den Heuvel  : Paramagnetic NMR                              
  Zikuan Wang            : NOTCH, Electric field optimization            
  Frank Wennmohs         : Technical directorship and infrastructure     
  Hang Xu                : AUTO-CI-Response properties                   
                                                                         
[FACCTs GmbH]                                                            
  Markus Bursch, Nicolas Foglia, Miquel Garcia-Rates, Ingolf Harden, Hagen Neugebauer, Anastasios Papadopoulos, 
  Christoph Riplinger, Bernardo de Souza, Georgi L. Stoychev                                                    
                                                                 
  APM, various basis sets, CI-OPT, improved COSX, DLPNO-Multilevel,           
  DOCKER, DRACO, updates on ESD, Fragmentator, GOAT, IRC, LR-CPCM, L-BFGS, MBIS, meta-GGA TD-DFT gradient, ML-optimized integration grids, 
  MM, NACMEs, nearIR, NEB, NEB-TS, NL-DFT gradient (VV10), 2- and 3-layer-ONIOM, interface openCOSMO-RS, QMMM,   
  Crystal-QMMM, RESP, rigid body optimization, SF, symmetry and pop. for TD-DFT, various functionals, SOLVATOR                                   
                                                                         
[Other institutions]                                                     
  V. Asgeirsson          : NEB                                           
  Christoph Bannwarth    : sTDA-DFT, sTD-DFT, PBEh-3c, B97-3c, D3        
  Giovanni Bistoni       : ETS/NOCV, ADLD/ADEX, COVALED                  
  Martin Brehm           : Molecular dynamics                            
  Ronald Cardenas        : ETS/NOCV                                      
  Martina Colucci        : COVALED                                       
  Sebastian Ehlert       : rSCAN, r2SCAN, r2SCAN-3c, D4, dhf basis sets  
  Marvin Friede          : D4 for Fr, Ra, Ac-Lr                          
  Lars Goerigk           : TD-DFT with DH, B97 family of functionals     
  Stefan Grimme          : VdW corrections, initial TS optimization, DFT functionals, gCP, sTDA/sTD-DF 
  Waldemar Hujo          : DFT-NL                                        
  H. Jonsson             : NEB                                           
  Holger Kruse           : gCP                                           
  Marcel Mueller         : wB97X-3c, vDZP basis set                      
  Hagen Neugebauer       : wr2SCAN, Native XTB                           
  Gianluca Regni         : ADLD/ADEX                                     
  Tobias Risthaus        : pre 6.0 range-separated hybrid DFT and stability analysis
  Lukas Wittmann         : regularized MP2, r2SCAN double-hybrids, wr2SCAN        
                                                                         
We gratefully acknowledge several colleagues who have allowed us to      
interface, adapt or use parts of their codes:                            
  Ed Valeev, F. Pavosevic, A. Kumar             : LibInt (2-el integral package), F12 methods 
  Garnet Chan, S. Sharma, J. Yang, R. Olivares  : DMRG                   
  Ulf Ekstrom                                   : XCFun DFT Library      
  Mihaly Kallay                                 : mrcc  (arbitrary order and MRCC methods)
  Frank Weinhold                                : gennbo (NPA and NBO analysis)           
  Simon Mueller                                 : openCOSMO-RS                            
  Christopher J. Cramer and Donald G. Truhlar   : smd solvation model                     
  S Lehtola, MJT Oliveira, MAL Marques          : LibXC Library                           
  Liviu Ungur et al                             : ANISO software                          


 Your calculation uses the libint2 library for the computation of 2-el integrals
 For citations please refer to: http://libint.valeyev.net

 Your ORCA version has been built with support for libXC version: 7.0.0
 For citations please refer to: https://libxc.gitlab.io

 This ORCA versions uses:
   CBLAS   interface :  Fast vector & matrix operations
   LAPACKE interface :  Fast linear algebra routines
   SCALAPACK package :  Parallel linear algebra routines
   Shared memory     :  Shared parallel matrices
   BLAS/LAPACK       :  OpenBLAS 0.3.29  USE64BITINT DYNAMIC_ARCH NO_AFFINITY Haswell SINGLE_THREADED
        Core in use  :  Haswell
   Copyright (c) 2011-2014, The OpenBLAS Project


  ***********************************
  * Starting time: Tue Jan 20 19:08:42 2026
  * Host name:     Maks
  * Process ID:    2925
  * Working dir.:  /home/maksy/Chemia_obliczeniowa/Cwiczenia5
  ***********************************

================================================================================

----- Orbital basis set information -----
Your calculation utilizes the basis: def2-TZVP
   F. Weigend and R. Ahlrichs, Phys. Chem. Chem. Phys. 7, 3297 (2005).

================================================================================
                                        WARNINGS
                       Please study these warnings very carefully!
================================================================================

WARNING: Gradients needed for Numerical Frequencies
  ===> : Setting RunTyp to EnGrad

WARNING: your system is open-shell and RHF/RKS was chosen
  ===> : WILL SWITCH to UHF/UKS


WARNING: The frozen-core approximation for MP2-gradient calculations is turned on by default.

WARNING: Post HF methods need fully converged wavefunctions
  ===> : Setting SCFConvForced true
         You can overwrite this default with %scf ConvForced false 


================================================================================
                                       INPUT FILE
================================================================================
NAME = tlen_numfreq.inp
|  1> ! MP2 def2-TZVP NumFreq
|  2> * xyz 0 3
|  3>   O           0.08850675643563      0.00000000000000      0.00000000000000
|  4>   O           1.31149324356437      0.00000000000000      0.00000000000000
|  5> *
|  6> 
|  7>                          ****END OF INPUT****
================================================================================

                     *******************************
                     * Energy+Gradient Calculation *
                     *******************************

---------------------------------
CARTESIAN COORDINATES (ANGSTROEM)
---------------------------------
  O      0.088507    0.000000    0.000000
  O      1.311493    0.000000    0.000000

----------------------------
CARTESIAN COORDINATES (A.U.)
----------------------------
  NO LB      ZA    FRAG     MASS         X           Y           Z
   0 O     8.0000    0    15.999    0.167254    0.000000    0.000000
   1 O     8.0000    0    15.999    2.478363    0.000000    0.000000

--------------------------------
INTERNAL COORDINATES (ANGSTROEM)
--------------------------------
 O      0   0   0     0.000000000000     0.00000000     0.00000000
 O      1   0   0     1.222986487129     0.00000000     0.00000000

---------------------------
INTERNAL COORDINATES (A.U.)
---------------------------
 O      0   0   0     0.000000000000     0.00000000     0.00000000
 O      1   0   0     2.311109526160     0.00000000     0.00000000

---------------------
BASIS SET INFORMATION
---------------------
There are 1 groups of distinct atoms

 Group   1 Type O   : 11s6p2d1f contracted to 5s3p2d1f pattern {62111/411/11/1}

Atom   0O    basis set group =>   1
Atom   1O    basis set group =>   1
------------------------------------------------------------------------------
                             ORCA STARTUP CALCULATIONS
------------------------------------------------------------------------------
------------------------------------------------------------------------------
                   ___                                                        
                  /   \      - P O W E R E D   B Y -                         
                 /     \                                                     
                 |  |  |   _    _      __       _____    __    __             
                 |  |  |  | |  | |    /  \     |  _  \  |  |  /  |          
                  \  \/   | |  | |   /    \    | | | |  |  | /  /          
                 / \  \   | |__| |  /  /\  \   | |_| |  |  |/  /          
                |  |  |   |  __  | /  /__\  \  |    /   |      \           
                |  |  |   | |  | | |   __   |  |    \   |  |\   \          
                \     /   | |  | | |  |  |  |  | |\  \  |  | \   \       
                 \___/    |_|  |_| |__|  |__|  |_| \__\ |__|  \__/        
                                                                              
                      - O R C A' S   B I G   F R I E N D -                    
                                      &                                       
                       - I N T E G R A L  F E E D E R -                       
                                                                              
 v1 FN, 2020, v2 2021, v3 2022-2024                                           
------------------------------------------------------------------------------


----------------------
SHARK INTEGRAL PACKAGE
----------------------

Number of atoms                             ...      2
Number of basis functions                   ...     62
Number of shells                            ...     22
Maximum angular momentum                    ...      3
Integral batch strategy                     ... SHARK/LIBINT Hybrid
RI-J (if used) integral strategy            ... SPLIT-RIJ (Revised 2003 algorithm where possible)
Printlevel                                  ...      1
Contraction scheme used                     ... SEGMENTED contraction
Prescreening option                         ... SCHWARTZ
   Thresh                                   ... 2.500e-11
   Tcut                                     ... 2.500e-12
   Tpresel                                  ... 2.500e-12 
Coulomb Range Separation                    ... NOT USED
Exchange Range Separation                   ... NOT USED
Multipole approximations                    ... NOT USED
Finite Nucleus Model                        ... NOT USED
CABS basis                                  ... NOT available
Auxiliary Coulomb fitting basis             ... NOT available
Auxiliary J/K fitting basis                 ... NOT available
Auxiliary Correlation fitting basis         ... NOT available
Auxiliary 'external' fitting basis          ... NOT available

Checking pre-screening integrals            ... done (  0.0 sec) Dimension = 22
   => SHARK Basis and OBASIS are compatible. Storing Pre-screening
Shell pair information
Shell pair cut-off parameter TPreSel        ...   2.5e-12
Total number of shell pairs                 ...       253
Shell pairs after pre-screening             ...       252
Total number of primitive shell pairs       ...       864
Primitive shell pairs kept                  ...       783
          la=0 lb=0:     54 shell pairs
          la=1 lb=0:     60 shell pairs
          la=1 lb=1:     21 shell pairs
          la=2 lb=0:     40 shell pairs
          la=2 lb=1:     24 shell pairs
          la=2 lb=2:     10 shell pairs
          la=3 lb=0:     20 shell pairs
          la=3 lb=1:     12 shell pairs
          la=3 lb=2:      8 shell pairs
          la=3 lb=3:      3 shell pairs

Checking whether 4 symmetric matrices of dimension 62 fit in memory
:Max Core in MB      =   4096.00
 MB in use           =      2.19
 MB left             =   4093.81
 MB needed           =      0.06
 Data fit in memory  = YES
Calculating Nuclear repulsion               ... done (  0.0 sec) ENN=     27.692326683602 Eh

Diagonalization of the overlap matrix:
Smallest eigenvalue                        ... 2.185e-03
Time for diagonalization                   ...    0.000 sec
Threshold for overlap eigenvalues          ... 1.000e-07
Number of eigenvalues below threshold      ... 0
Time for construction of square roots      ...    0.000 sec
Total time needed                          ...    0.001 sec

-------------------
DFT GRID GENERATION
-------------------

General Integration Accuracy     IntAcc      ... 4.388
Radial Grid Type                 RadialGrid  ... OptM3 with GC (2021)
Angular Grid (max. ang.)         AngularGrid ... 4 (Lebedev-302)
Angular grid pruning method      GridPruning ... 4 (adaptive)
Weight generation scheme         WeightScheme... mBecke (2022)
Basis function cutoff            BFCut       ... 1.0000e-11
Integration weight cutoff        WCut        ... 1.0000e-14
Partially contracted basis set               ... off
Rotationally invariant grid construction     ... off
Angular grids for H and He will be reduced by one unit

Total number of grid points                  ...    12260
Total number of batches                      ...      192
Average number of points per batch           ...       63
Average number of grid points per atom       ...     6130
Grids setup in   0.0 sec
Initializing property integral containers    ... done (  0.0 sec)

SHARK setup successfully completed in   0.1 seconds

Maximum memory used throughout the entire STARTUP-calculation: 12.5 MB
-------------------------------------------------------------------------------
                                 ORCA GUESS
                   Start orbitals & Density for SCF / CASSCF
-------------------------------------------------------------------------------

------------
SCF SETTINGS
------------
Hamiltonian:
 Ab initio Hamiltonian  Method          .... Hartree-Fock(GTOs)


General Settings:
 Integral files         IntName         .... tlen_numfreq
 Hartree-Fock type      HFTyp           .... UHF
 Total Charge           Charge          ....    0
 Multiplicity           Mult            ....    3
 Number of Electrons    NEL             ....   16
 Basis Dimension        Dim             ....   62
 Nuclear Repulsion      ENuc            ....     27.6923266836 Eh

Convergence Acceleration:
 AO-DIIS                CNVDIIS         .... on
   Start iteration      DIISMaxIt       ....    12
   Startup error        DIISStart       ....  0.200000
   # of expansion vecs  DIISMaxEq       ....     5
   Bias factor          DIISBfac        ....   1.050
   Max. coefficient     DIISMaxC        ....  10.000
 MO-DIIS                CNVKDIIS        .... off
 Trust-Rad. Augm. Hess. CNVTRAH         .... auto
   Auto Start mean grad. ratio tolernc. ....  1.125000
   Auto Start start iteration           ....    50
   Auto Start num. interpolation iter.  ....    10
   Max. Number of Micro iterations      ....    24
   Max. Number of Macro iterations      .... Maxiter - #DIIS iter
   Number of Davidson start vectors     ....     2
   Converg. threshold    (grad. norm)   ....   1.000e-05
   Grad. Scal. Fac. for Micro threshold ....   0.100
   Minimum threshold for Micro iter.    ....   1.000e-02
   NR start threshold (gradient norm)   ....   1.000e-04
   Initial trust radius                 ....   0.400
   Minimum AH scaling param. (alpha)    ....   1.000
   Maximum AH scaling param. (alpha)    .... 1000.000
   Quad. conv. algorithm                .... NR
   White noise on init. David. guess    .... on
   Maximum white noise                  ....   0.010
   Pseudo random numbers                .... off
   Inactive MOs                         .... canonical
   Orbital update algorithm             .... Taylor
   Preconditioner                       .... Diag
   Full preconditioner red. dimension   ....   250
 SOSCF                 CNVSOSCF           .... on
   Start iteration     SOSCFMaxIt         ....   150
   Startup grad/error  SOSCFStart         ....  0.003300
   Hessian update      SOSCFHessUp        .... L-BFGS
   Autom. constraints  SOSCFAutoConstrain .... off
 Level Shifting         CNVShift        .... on
   Level shift para.    LevelShift      ....    0.2500
   Turn off err/grad.   ShiftErr        ....    0.0010
 Zerner damping         CNVZerner       .... off
 Static damping         CNVDamp         .... on
   Fraction old density DampFac         ....    0.7000
   Max. Damping (<1)    DampMax         ....    0.9800
   Min. Damping (>=0)   DampMin         ....    0.0000
   Turn off err/grad.   DampErr         ....    0.1000

SCF Procedure:
 Maximum # iterations   MaxIter         ....   125
 SCF integral mode      SCFMode         .... Direct
   Integral package                     .... SHARK and LIBINT hybrid scheme
 Reset frequency        DirectResetFreq ....    20
 Integral Threshold     Thresh          ....  2.500e-11 Eh
 Primitive CutOff       TCut            ....  2.500e-12 Eh

Convergence Tolerance:
 Convergence Check Mode ConvCheckMode   .... Total+1el-Energy
 Convergence forced     ConvForced      .... 1
 Energy Change          TolE            ....  1.000e-08 Eh
 1-El. energy change                    ....  1.000e-05 Eh
 Orbital Gradient       TolG            ....  1.000e-05
 Orbital Rotation angle TolX            ....  1.000e-05
 DIIS Error             TolErr          ....  5.000e-07

------------------------------
INITIAL GUESS: MODEL POTENTIAL
------------------------------
Loading Hartree-Fock densities                     ... done
Calculating cut-offs                               ... done
Initializing the effective Hamiltonian             ... done
Setting up the integral package (SHARK)            ... done
Starting the Coulomb interaction                   ... done (   0.0 sec)
Making the grid                                    ... done (   0.0 sec)
Mapping shells                                     ... done
Starting the XC term evaluation                    ... done (   0.0 sec)
Transforming the Hamiltonian                       ... done (   0.0 sec)
Diagonalizing the Hamiltonian                      ... done (   0.0 sec)
Back transforming the eigenvectors                 ... done (   0.0 sec)
Now organizing SCF variables                       ... done
                      ------------------
                      INITIAL GUESS DONE (   0.0 sec)
                      ------------------
             **** ENERGY FILE WAS UPDATED (tlen_numfreq.en.tmp) ****
Finished Guess after   0.0 sec
Maximum memory used throughout the entire GUESS-calculation: 6.4 MB

-------------------------------------------------------------------------------------------
                                      ORCA LEAN-SCF
                              memory conserving SCF solver
-------------------------------------------------------------------------------------------

----------------------------------------D-I-I-S--------------------------------------------
Iteration    Energy (Eh)           Delta-E    RMSDP     MaxDP     DIISErr   Damp  Time(sec)
-------------------------------------------------------------------------------------------
               ***  Starting incremental Fock matrix formation  ***
    1    -149.6300113479395861     0.00e+00  6.74e-04  8.50e-03  1.67e-01  0.700   0.1
    2    -149.6420369477615111    -1.20e-02  5.73e-04  7.13e-03  1.20e-01  0.700   0.1
                               ***Turning on AO-DIIS***
    3    -149.6513709434807708    -9.33e-03  5.36e-04  6.50e-03  8.62e-02  0.700   0.1
    4    -149.6585589837345083    -7.19e-03  1.48e-03  1.83e-02  6.04e-02  0.000   0.1
    5    -149.6795571357024812    -2.10e-02  2.73e-04  2.99e-03  5.88e-03  0.000   0.1
                              *** Initializing SOSCF ***
---------------------------------------S-O-S-C-F--------------------------------------
Iteration    Energy (Eh)           Delta-E    RMSDP     MaxDP     MaxGrad    Time(sec)
--------------------------------------------------------------------------------------
    6    -149.6800473398830320    -4.90e-04  1.87e-04  1.99e-03  2.82e-03     0.1
               *** Restarting incremental Fock matrix formation ***
    7    -149.6801831983281375    -1.36e-04  4.74e-05  5.08e-04  1.33e-03     0.1
    8    -149.6801939089078530    -1.07e-05  4.42e-05  4.87e-04  5.39e-04     0.1
    9    -149.6801972788453838    -3.37e-06  2.95e-06  4.37e-05  8.49e-05     0.1
   10    -149.6801973043804423    -2.55e-08  7.91e-07  1.14e-05  2.37e-05     0.1
   11    -149.6801973066860967    -2.31e-09  1.54e-07  2.58e-06  3.70e-06     0.1
                 **** Energy Check signals convergence ****

               *****************************************************
               *                     SUCCESS                       *
               *           SCF CONVERGED AFTER  11 CYCLES          *
               *****************************************************

             **** ENERGY FILE WAS UPDATED (tlen_numfreq.en.tmp) ****

----------------
TOTAL SCF ENERGY
----------------

Total Energy       :       -149.68019730678833 Eh           -4073.00524 eV

Components:
Nuclear Repulsion  :         27.69232668360210 Eh             753.54652 eV
Electronic Energy  :       -177.37252399039042 Eh           -4826.55175 eV
One Electron Energy:       -260.93358064248594 Eh           -7100.36370 eV
Two Electron Energy:         83.56105665209552 Eh            2273.81195 eV

Virial components:
Potential Energy   :       -299.09684677084010 Eh           -8138.83897 eV
Kinetic Energy     :        149.41664946405177 Eh            4065.83373 eV
Virial Ratio       :          2.00176384521860

---------------
SCF CONVERGENCE
---------------

  Last Energy change         ...    2.3057e-09  Tolerance :   1.0000e-08
  Last MAX-Density change    ...    2.5847e-06  Tolerance :   1.0000e-07
  Last RMS-Density change    ...    1.5444e-07  Tolerance :   5.0000e-09
  Last DIIS Error            ...    2.8185e-03  Tolerance :   5.0000e-07
  Last Orbital Gradient      ...    3.7034e-06  Tolerance :   1.0000e-05
  Last Orbital Rotation      ...    2.2659e-06  Tolerance :   1.0000e-05


----------------------
UHF SPIN CONTAMINATION
----------------------

Expectation value of <S**2>     :     2.047184
Ideal value S*(S+1) for S=1.0   :     2.000000
Deviation                       :     0.047184

----------------
ORBITAL ENERGIES
----------------
                 SPIN UP ORBITALS
  NO   OCC          E(Eh)            E(eV) 
   0   1.0000     -20.757774      -564.8478 
   1   1.0000     -20.757152      -564.8308 
   2   1.0000      -1.703896       -46.3654 
   3   1.0000      -1.211737       -32.9730 
   4   1.0000      -0.839123       -22.8337 
   5   1.0000      -0.839123       -22.8337 
   6   1.0000      -0.760844       -20.7036 
   7   1.0000      -0.564356       -15.3569 
   8   1.0000      -0.564356       -15.3569 
   9   0.0000       0.325773         8.8647 
  10   0.0000       0.471035        12.8175 
  11   0.0000       0.514192        13.9919 
  12   0.0000       0.514192        13.9919 
  13   0.0000       0.579333        15.7644 
  14   0.0000       0.617632        16.8066 
  15   0.0000       0.617632        16.8066 
  16   0.0000       0.628907        17.1134 
  17   0.0000       0.894196        24.3323 
  18   0.0000       1.449813        39.4514 
  19   0.0000       1.449813        39.4514 

                 SPIN DOWN ORBITALS
  NO   OCC          E(Eh)            E(eV) 
   0   1.0000     -20.702063      -563.3318 
   1   1.0000     -20.700928      -563.3009 
   2   1.0000      -1.570754       -42.7424 
   3   1.0000      -0.998895       -27.1813 
   4   1.0000      -0.700771       -19.0689 
   5   1.0000      -0.569846       -15.5063 
   6   1.0000      -0.569846       -15.5063 
   7   0.0000       0.096552         2.6273 
   8   0.0000       0.096552         2.6273 
   9   0.0000       0.369039        10.0421 
  10   0.0000       0.483357        13.1528 
  11   0.0000       0.564723        15.3669 
  12   0.0000       0.564723        15.3669 
  13   0.0000       0.576502        15.6874 
  14   0.0000       0.679139        18.4803 
  15   0.0000       0.693866        18.8810 
  16   0.0000       0.693866        18.8810 
  17   0.0000       0.917577        24.9685 
*Only the first 10 virtual orbitals were printed.

                    ********************************
                    * MULLIKEN POPULATION ANALYSIS *
                    ********************************

--------------------------------------------
MULLIKEN ATOMIC CHARGES AND SPIN POPULATIONS
--------------------------------------------
   0 O :   -0.000000    1.000000
   1 O :   -0.000000    1.000000
Sum of atomic charges         :   -0.0000000
Sum of atomic spin populations:    2.0000000

-----------------------------------------------------
MULLIKEN REDUCED ORBITAL CHARGES AND SPIN POPULATIONS
-----------------------------------------------------
CHARGE
  0 O s       :     3.898047  s :     3.898047
      pz      :     1.481701  p :     4.042084
      px      :     1.078681
      py      :     1.481701
      dz2     :     0.005279  d :     0.054905
      dxz     :     0.016894
      dyz     :     0.000000
      dx2y2   :     0.015838
      dxy     :     0.016894
      f0      :     0.000527  f :     0.004964
      f+1     :     0.000808
      f-1     :     0.000088
      f+2     :     0.000878
      f-2     :     0.000000
      f+3     :     0.001346
      f-3     :     0.001317

  1 O s       :     3.898047  s :     3.898047
      pz      :     1.481701  p :     4.042084
      px      :     1.078681
      py      :     1.481701
      dz2     :     0.005279  d :     0.054905
      dxz     :     0.016894
      dyz     :     0.000000
      dx2y2   :     0.015838
      dxy     :     0.016894
      f0      :     0.000527  f :     0.004964
      f+1     :     0.000808
      f-1     :     0.000088
      f+2     :     0.000878
      f-2     :     0.000000
      f+3     :     0.001346
      f-3     :     0.001317


SPIN
  0 O s       :     0.028580  s :     0.028580
      pz      :     0.505414  p :     0.980610
      px      :    -0.030219
      py      :     0.505414
      dz2     :     0.000492  d :    -0.008512
      dxz     :    -0.005240
      dyz     :    -0.000000
      dx2y2   :     0.001475
      dxy     :    -0.005240
      f0      :    -0.000065  f :    -0.000678
      f+1     :    -0.000123
      f-1     :    -0.000011
      f+2     :    -0.000109
      f-2     :     0.000000
      f+3     :    -0.000206
      f-3     :    -0.000163

  1 O s       :     0.028580  s :     0.028580
      pz      :     0.505414  p :     0.980610
      px      :    -0.030219
      py      :     0.505414
      dz2     :     0.000492  d :    -0.008512
      dxz     :    -0.005240
      dyz     :    -0.000000
      dx2y2   :     0.001475
      dxy     :    -0.005240
      f0      :    -0.000065  f :    -0.000678
      f+1     :    -0.000123
      f-1     :    -0.000011
      f+2     :    -0.000109
      f-2     :     0.000000
      f+3     :    -0.000206
      f-3     :    -0.000163



                     *******************************
                     * LOEWDIN POPULATION ANALYSIS *
                     *******************************

-------------------------------------------
LOEWDIN ATOMIC CHARGES AND SPIN POPULATIONS
-------------------------------------------
   0 O :    0.000000    1.000000
   1 O :   -0.000000    1.000000

----------------------------------------------------
LOEWDIN REDUCED ORBITAL CHARGES AND SPIN POPULATIONS
----------------------------------------------------
CHARGE
  0 O s       :     3.643719  s :     3.643719
      pz      :     1.453834  p :     4.189819
      px      :     1.282150
      py      :     1.453834
      dz2     :     0.016803  d :     0.148996
      dxz     :     0.040891
      dyz     :     0.000000
      dx2y2   :     0.050410
      dxy     :     0.040891
      f0      :     0.001978  f :     0.017466
      f+1     :     0.002594
      f-1     :     0.000330
      f+2     :     0.003296
      f-2     :     0.000000
      f+3     :     0.004324
      f-3     :     0.004945

  1 O s       :     3.643719  s :     3.643719
      pz      :     1.453834  p :     4.189819
      px      :     1.282150
      py      :     1.453834
      dz2     :     0.016803  d :     0.148996
      dxz     :     0.040891
      dyz     :     0.000000
      dx2y2   :     0.050410
      dxy     :     0.040891
      f0      :     0.001978  f :     0.017466
      f+1     :     0.002594
      f-1     :     0.000330
      f+2     :     0.003296
      f-2     :     0.000000
      f+3     :     0.004324
      f-3     :     0.004945


SPIN
  0 O s       :     0.021690  s :     0.021690
      pz      :     0.484842  p :     0.941482
      px      :    -0.028203
      py      :     0.484842
      dz2     :     0.001622  d :     0.031731
      dxz     :     0.012622
      dyz     :    -0.000000
      dx2y2   :     0.004865
      dxy     :     0.012622
      f0      :     0.000951  f :     0.005096
      f+1     :     0.000010
      f-1     :     0.000158
      f+2     :     0.001584
      f-2     :     0.000000
      f+3     :     0.000016
      f-3     :     0.002377

  1 O s       :     0.021690  s :     0.021690
      pz      :     0.484842  p :     0.941482
      px      :    -0.028203
      py      :     0.484842
      dz2     :     0.001622  d :     0.031731
      dxz     :     0.012622
      dyz     :    -0.000000
      dx2y2   :     0.004865
      dxy     :     0.012622
      f0      :     0.000951  f :     0.005096
      f+1     :     0.000010
      f-1     :     0.000158
      f+2     :     0.001584
      f-2     :     0.000000
      f+3     :     0.000016
      f-3     :     0.002377



                      *****************************
                      * MAYER POPULATION ANALYSIS *
                      *****************************

  NA   - Mulliken gross atomic population
  ZA   - Total nuclear charge
  QA   - Mulliken gross atomic charge
  VA   - Mayer's total valence
  BVA  - Mayer's bonded valence
  FA   - Mayer's free valence

  ATOM       NA         ZA         QA         VA         BVA        FA
  0 O      8.0000     8.0000    -0.0000     2.4591     1.8366     0.6225
  1 O      8.0000     8.0000    -0.0000     2.4591     1.8366     0.6225

  Mayer bond orders larger than 0.100000
B(  0-O ,  1-O ) :   1.8366 

-------
TIMINGS
-------

Total SCF time: 0 days 0 hours 0 min 0 sec 

Total time                  ....       0.961 sec
Sum of individual times     ....       0.877 sec  ( 91.3%)

SCF preparation             ....       0.025 sec  (  2.6%)
Fock matrix formation       ....       0.829 sec  ( 86.2%)
  Startup                   ....       0.000 sec  (  0.1% of F)
  Coulomb+Exchange Fock     ....       0.898 sec  (108.4% of F)
Diagonalization             ....       0.000 sec  (  0.0%)
Density matrix formation    ....       0.004 sec  (  0.4%)
Total Energy calculation    ....       0.001 sec  (  0.1%)
Population analysis         ....       0.001 sec  (  0.2%)
Orbital Transformation      ....       0.004 sec  (  0.4%)
Orbital Orthonormalization  ....       0.000 sec  (  0.0%)
DIIS solution               ....       0.009 sec  (  1.0%)
SOSCF solution              ....       0.004 sec  (  0.5%)
Finished LeanSCF after   1.0 sec

Maximum memory used throughout the entire LEANSCF-calculation: 12.1 MB

------------------------------------------------------------------------------
                                ORCA  MP2 
------------------------------------------------------------------------------

Freezing NCore=4 chemical core electrons
MP2 will be done in the AO integral direct mode
The Q1-step will be done using symmetric double matrices
Dimension of the basis                    ...   62
Memory devoted for MP2                    ... 4096 MB   
Memory needed for all in one shot         ...    7 MB
Number of MOs that can be treated together... 4432      
MP2 density construction                  ... relaxed
The MP2 gradient is requested => amplitudes will be stored on disk
Total number of MOs              ...    7
Number of MOs treated per batch  ...    7 
Number of batches necessary      ...    1 
OPERATORS   0/  0 PASS   0
OPERATORS   0/  1 PASS   0
Total number of MOs              ...    7
Number of MOs treated per batch  ...    5 
Number of batches necessary      ...    1 
OPERATORS   1/  0 PASS   0
OPERATORS   1/  1 PASS   0

Correlation energy components
 E2 and T2 for alpha/alpha pairs :     -0.058613590 Eh
 E2 and T2 for beta/beta   pairs :     -0.067704214 Eh
 E2 and T2 for alpha/beta  pairs :     -0.308749394 Eh

-----------------------------------------------
 MP2 CORRELATION ENERGY   :     -0.435067198 Eh
-----------------------------------------------


---------------------
MP2 DENSITY FORMATION
---------------------

Completing the external part of the density      ... done
Storing the unrelaxed density                    ... done

Calculating G(D)                                 ... done
Completing the Lagrangian                        ... done
Solving the Z-vector equations                   ... 
-------------------
SHARK CP-SCF DRIVER
-------------------

Dimension of the orbital basis          ...     62
Dimension of the CPSCF-problem          ...    862
Number of operators                     ...      2
Max. number of iterations               ...    128
Convergence Tolerance                   ... 1.0e-04
Number of perturbations                 ...      1
Perturbation type                       ... REAL

----------------------------
POPLE LINEAR EQUATION SOLVER
----------------------------

  ITERATION   0:   ||err||_max =   5.4417e-02 (   0.1 sec)
  ITERATION   1:   ||err||_max =   1.4124e-02 (   0.1 sec)
  ITERATION   2:   ||err||_max =   2.5080e-03 (   0.1 sec)
  ITERATION   3:   ||err||_max =   5.1981e-04 (   0.1 sec)
  ITERATION   4:   ||err||_max =   6.8144e-05 (   0.1 sec)
                                                 ... done
Finalizing the relaxed density                   ... done
Transforming P to the AO basis                   ... done
Storing the relaxed density                      ... done

------------------------------------
ENERGY WEIGHTED DENSITY FINALIZATION
------------------------------------

Gathering the parts of the W-matrix              ...                                                                                                           done
Forming the Z-density                            ... done
Transforming Z to the AO basis                   ... done
Calculating G(Z)                                 ... done
Finalizing the W-matrix                          ...                                                                                                           done
Transforming W to the AO basis and storing       ... done

                *********************************************
                * UNRELAXED MP2 DENSITY POPULATION ANALYSIS *
                *********************************************

------------------------------------------------------------------------------
                           ORCA POPULATION ANALYSIS
------------------------------------------------------------------------------
Input electron density              ... tlen_numfreq.pmp2ur
Input spin density                  ... tlen_numfreq.rmp2ur
BaseName (.gbw .S,...)              ... tlen_numfreq

                    ********************************
                    * MULLIKEN POPULATION ANALYSIS *
                    ********************************

------------------------------------------
MULLIKEN ATOMIC CHARGES AND SPIN DENSITIES
------------------------------------------
   0 O :   -0.000000    1.000000
   1 O :   -0.000000    1.000000
Sum of atomic charges       :   -0.0000000
Sum of atomic spin densities:    2.0000000

---------------------------------------------------
MULLIKEN REDUCED ORBITAL CHARGES AND SPIN DENSITIES
---------------------------------------------------
CHARGE
  0 O s       :     3.892790  s :     3.892790
      pz      :     1.475424  p :     4.024887
      px      :     1.074038
      py      :     1.475424
      dz2     :     0.009452  d :     0.075151
      dxz     :     0.020979
      dyz     :     0.004615
      dx2y2   :     0.019126
      dxy     :     0.020979
      f0      :     0.000826  f :     0.007172
      f+1     :     0.001135
      f-1     :     0.000371
      f+2     :     0.001190
      f-2     :     0.000345
      f+3     :     0.001661
      f-3     :     0.001644
  1 O s       :     3.892790  s :     3.892790
      pz      :     1.475424  p :     4.024887
      px      :     1.074038
      py      :     1.475424
      dz2     :     0.009452  d :     0.075151
      dxz     :     0.020979
      dyz     :     0.004615
      dx2y2   :     0.019126
      dxy     :     0.020979
      f0      :     0.000826  f :     0.007172
      f+1     :     0.001135
      f-1     :     0.000371
      f+2     :     0.001190
      f-2     :     0.000345
      f+3     :     0.001661
      f-3     :     0.001644

SPIN
  0 O s       :     0.031569  s :     0.031569
      pz      :     0.500305  p :     0.971389
      px      :    -0.029220
      py      :     0.500305
      dz2     :     0.001533  d :    -0.002692
      dxz     :    -0.003741
      dyz     :     0.001341
      dx2y2   :     0.001916
      dxy     :    -0.003741
      f0      :     0.000008  f :    -0.000266
      f+1     :    -0.000083
      f-1     :     0.000063
      f+2     :    -0.000035
      f-2     :     0.000027
      f+3     :    -0.000156
      f-3     :    -0.000090
  1 O s       :     0.031569  s :     0.031569
      pz      :     0.500305  p :     0.971389
      px      :    -0.029220
      py      :     0.500305
      dz2     :     0.001533  d :    -0.002692
      dxz     :    -0.003741
      dyz     :     0.001341
      dx2y2   :     0.001916
      dxy     :    -0.003741
      f0      :     0.000008  f :    -0.000266
      f+1     :    -0.000083
      f-1     :     0.000063
      f+2     :    -0.000035
      f-2     :     0.000027
      f+3     :    -0.000156
      f-3     :    -0.000090


                     *******************************
                     * LOEWDIN POPULATION ANALYSIS *
                     *******************************

-----------------------------------------
LOEWDIN ATOMIC CHARGES AND SPIN DENSITIES
-----------------------------------------
   0 O :    0.000000    1.000000
   1 O :   -0.000000    1.000000

--------------------------------------------------
LOEWDIN REDUCED ORBITAL CHARGES AND SPIN DENSITIES
--------------------------------------------------
CHARGE
  0 O s       :     3.639002  s :     3.639002
      pz      :     1.447542  p :     4.168443
      px      :     1.273359
      py      :     1.447542
      dz2     :     0.021750  d :     0.172285
      dxz     :     0.044945
      dyz     :     0.004606
      dx2y2   :     0.056039
      dxy     :     0.044945
      f0      :     0.002294  f :     0.020270
      f+1     :     0.003108
      f-1     :     0.000616
      f+2     :     0.003637
      f-2     :     0.000354
      f+3     :     0.004945
      f-3     :     0.005315
  1 O s       :     3.639002  s :     3.639002
      pz      :     1.447542  p :     4.168443
      px      :     1.273359
      py      :     1.447542
      dz2     :     0.021750  d :     0.172285
      dxz     :     0.044945
      dyz     :     0.004606
      dx2y2   :     0.056039
      dxy     :     0.044945
      f0      :     0.002294  f :     0.020270
      f+1     :     0.003108
      f-1     :     0.000616
      f+2     :     0.003637
      f-2     :     0.000354
      f+3     :     0.004945
      f-3     :     0.005315

SPIN
  0 O s       :     0.024239  s :     0.024239
      pz      :     0.480261  p :     0.933462
      px      :    -0.027059
      py      :     0.480261
      dz2     :     0.002723  d :     0.036896
      dxz     :     0.013671
      dyz     :     0.001338
      dx2y2   :     0.005493
      dxy     :     0.013671
      f0      :     0.000995  f :     0.005403
      f+1     :     0.000069
      f-1     :     0.000227
      f+2     :     0.001609
      f-2     :     0.000030
      f+3     :     0.000095
      f-3     :     0.002377
  1 O s       :     0.024239  s :     0.024239
      pz      :     0.480261  p :     0.933462
      px      :    -0.027059
      py      :     0.480261
      dz2     :     0.002723  d :     0.036896
      dxz     :     0.013671
      dyz     :     0.001338
      dx2y2   :     0.005493
      dxy     :     0.013671
      f0      :     0.000995  f :     0.005403
      f+1     :     0.000069
      f-1     :     0.000227
      f+2     :     0.001609
      f-2     :     0.000030
      f+3     :     0.000095
      f-3     :     0.002377


                      *****************************
                      * MAYER POPULATION ANALYSIS *
                      *****************************

  NA   - Mulliken gross atomic population
  ZA   - Total nuclear charge
  QA   - Mulliken gross atomic charge
  VA   - Mayer's total valence
  BVA  - Mayer's bonded valence
  FA   - Mayer's free valence

  ATOM       NA         ZA         QA         VA         BVA        FA
  0 O      8.0000     8.0000    -0.0000     2.6550     1.6204     1.0346
  1 O      8.0000     8.0000    -0.0000     2.6550     1.6204     1.0346

  Mayer bond orders larger than 0.100000
B(  0-O ,  1-O ) :   1.6204 


                *******************************************
                * RELAXED MP2 DENSITY POPULATION ANALYSIS *
                *******************************************

------------------------------------------------------------------------------
                           ORCA POPULATION ANALYSIS
------------------------------------------------------------------------------
Input electron density              ... tlen_numfreq.pmp2re
Input spin density                  ... tlen_numfreq.rmp2re
BaseName (.gbw .S,...)              ... tlen_numfreq

                    ********************************
                    * MULLIKEN POPULATION ANALYSIS *
                    ********************************

------------------------------------------
MULLIKEN ATOMIC CHARGES AND SPIN DENSITIES
------------------------------------------
   0 O :   -0.000000    1.000000
   1 O :    0.000000    1.000000
Sum of atomic charges       :   -0.0000000
Sum of atomic spin densities:    2.0000000

---------------------------------------------------
MULLIKEN REDUCED ORBITAL CHARGES AND SPIN DENSITIES
---------------------------------------------------
CHARGE
  0 O s       :     3.919542  s :     3.919542
      pz      :     1.476074  p :     4.001986
      px      :     1.049837
      py      :     1.476074
      dz2     :     0.008846  d :     0.071513
      dxz     :     0.020372
      dyz     :     0.004615
      dx2y2   :     0.017309
      dxy     :     0.020372
      f0      :     0.000810  f :     0.006959
      f+1     :     0.001087
      f-1     :     0.000369
      f+2     :     0.001163
      f-2     :     0.000345
      f+3     :     0.001582
      f-3     :     0.001604
  1 O s       :     3.919542  s :     3.919542
      pz      :     1.476074  p :     4.001986
      px      :     1.049837
      py      :     1.476074
      dz2     :     0.008846  d :     0.071513
      dxz     :     0.020372
      dyz     :     0.004615
      dx2y2   :     0.017309
      dxy     :     0.020372
      f0      :     0.000810  f :     0.006959
      f+1     :     0.001087
      f-1     :     0.000369
      f+2     :     0.001163
      f-2     :     0.000345
      f+3     :     0.001582
      f-3     :     0.001604

SPIN
  0 O s       :     0.016063  s :     0.016063
      pz      :     0.495730  p :     0.978856
      px      :    -0.012604
      py      :     0.495730
      dz2     :     0.001264  d :     0.005262
      dxz     :     0.000773
      dyz     :     0.001341
      dx2y2   :     0.001110
      dxy     :     0.000773
      f0      :     0.000031  f :    -0.000181
      f+1     :    -0.000096
      f-1     :     0.000067
      f+2     :     0.000002
      f-2     :     0.000027
      f+3     :    -0.000178
      f-3     :    -0.000034
  1 O s       :     0.016063  s :     0.016063
      pz      :     0.495730  p :     0.978856
      px      :    -0.012604
      py      :     0.495730
      dz2     :     0.001264  d :     0.005262
      dxz     :     0.000773
      dyz     :     0.001341
      dx2y2   :     0.001110
      dxy     :     0.000773
      f0      :     0.000031  f :    -0.000181
      f+1     :    -0.000096
      f-1     :     0.000067
      f+2     :     0.000002
      f-2     :     0.000027
      f+3     :    -0.000178
      f-3     :    -0.000034


                     *******************************
                     * LOEWDIN POPULATION ANALYSIS *
                     *******************************

-----------------------------------------
LOEWDIN ATOMIC CHARGES AND SPIN DENSITIES
-----------------------------------------
   0 O :   -0.000000    1.000000
   1 O :    0.000000    1.000000

--------------------------------------------------
LOEWDIN REDUCED ORBITAL CHARGES AND SPIN DENSITIES
--------------------------------------------------
CHARGE
  0 O s       :     3.650786  s :     3.650786
      pz      :     1.447580  p :     4.155706
      px      :     1.260546
      py      :     1.447580
      dz2     :     0.021932  d :     0.173154
      dxz     :     0.045016
      dyz     :     0.004606
      dx2y2   :     0.056584
      dxy     :     0.045016
      f0      :     0.002254  f :     0.020353
      f+1     :     0.003221
      f-1     :     0.000609
      f+2     :     0.003569
      f-2     :     0.000354
      f+3     :     0.005133
      f-3     :     0.005214
  1 O s       :     3.650786  s :     3.650786
      pz      :     1.447580  p :     4.155706
      px      :     1.260546
      py      :     1.447580
      dz2     :     0.021932  d :     0.173154
      dxz     :     0.045016
      dyz     :     0.004606
      dx2y2   :     0.056584
      dxy     :     0.045016
      f0      :     0.002254  f :     0.020353
      f+1     :     0.003221
      f-1     :     0.000609
      f+2     :     0.003569
      f-2     :     0.000354
      f+3     :     0.005133
      f-3     :     0.005214

SPIN
  0 O s       :     0.012958  s :     0.012958
      pz      :     0.475846  p :     0.939367
      px      :    -0.012325
      py      :     0.475846
      dz2     :     0.001922  d :     0.042706
      dxz     :     0.018178
      dyz     :     0.001338
      dx2y2   :     0.003090
      dxy     :     0.018178
      f0      :     0.000961  f :     0.004970
      f+1     :    -0.000025
      f-1     :     0.000222
      f+2     :     0.001552
      f-2     :     0.000030
      f+3     :    -0.000061
      f-3     :     0.002291
  1 O s       :     0.012958  s :     0.012958
      pz      :     0.475846  p :     0.939367
      px      :    -0.012325
      py      :     0.475846
      dz2     :     0.001922  d :     0.042706
      dxz     :     0.018178
      dyz     :     0.001338
      dx2y2   :     0.003090
      dxy     :     0.018178
      f0      :     0.000961  f :     0.004970
      f+1     :    -0.000025
      f-1     :     0.000222
      f+2     :     0.001552
      f-2     :     0.000030
      f+3     :    -0.000061
      f-3     :     0.002291


                      *****************************
                      * MAYER POPULATION ANALYSIS *
                      *****************************

  NA   - Mulliken gross atomic population
  ZA   - Total nuclear charge
  QA   - Mulliken gross atomic charge
  VA   - Mayer's total valence
  BVA  - Mayer's bonded valence
  FA   - Mayer's free valence

  ATOM       NA         ZA         QA         VA         BVA        FA
  0 O      8.0000     8.0000    -0.0000     2.5427     1.6153     0.9274
  1 O      8.0000     8.0000     0.0000     2.5427     1.6153     0.9274

  Mayer bond orders larger than 0.100000
B(  0-O ,  1-O ) :   1.6153 


----------------------------------
MP2 DERIVATIVE INTEGRAL GENERATION
----------------------------------

Input SCF Electron Density              ... tlen_numfreq.scfp
Input Correlated Electron Density       ... tlen_numfreq.pmp2re
Input Energy Weighted Density           ... tlen_numfreq.wmp2.tmp
Input Wavefunction Amplitudes           ... tlen_numfreq.mp2taa.tmp

Nuclear repulsion gradient              ... done (  0.0 sec)
HCore & Overlap gradient  (SHARK)       ... done (  0.0 sec)
Analytic two-electron gradient terms    ... 
  Batch handling in the gradient evaluation:
  General contraction                   ... not used
  Memory available                      ... 4092.3 MB
  Memory per occupied orbital in Q2     ...    0.4 MB
  Memory per occupied orbital in Q3     ...    0.0 MB
  Total memory requirement per |i>      ...    0.4 MB
  Number of orbitals treated per batch  ...     12
  Number of batches to be done          ...      1
done (  1.2 sec)

---------------------------------------
MP2 TOTAL ENERGY:     -150.115264505 Eh
---------------------------------------

The final MP2 gradient
  0:  -0.00000112   0.00000000   0.00000000
  1:   0.00000112  -0.00000000  -0.00000000

-----------------------------------
NORM OF THE MP2 GRADIENT:  0.000002
-----------------------------------

Maximum memory used throughout the entire MP2-calculation: 19.9 MB

-------------------------   --------------------
FINAL SINGLE POINT ENERGY      -150.115264504717
-------------------------   --------------------


------------------------------------------------------------------------------
                              ORCA PROPERTY CALCULATIONS
------------------------------------------------------------------------------

GBWName                                 ... tlen_numfreq.gbw
Number of atoms                         ...      2
Number of basis functions               ...     62
Max core memory                         ...   4096 MB

Electric properties:
Dipole moment                           ... YES
Quadrupole moment                       ...  NO
Static polarizability (Dipole/Dipole)   ...  NO
Static polarizability (Dipole/Quad.)    ...  NO
Static polarizability (Quad./Quad.)     ...  NO
Static polarizability (Velocity)        ...  NO
Static hyperpolarizability              ...  NO

Atomic electric properties:
Dipole moment                           ...  NO
Quadrupole moment                       ...  NO
Static polarizability                   ...  NO

Choice of electric origin               ... Center of mass
Position of electric origin             ...     1.322808     0.000000     0.000000

General magnetic properties:
Magnetizability                         ...  NO

EPR properties:
g-Tensor (aka g-matrix)                 ...  NO
Zero-Field splitting spin-orbit         ...  NO
Zero-field splitting spin-spin          ...  NO
Hyperfine couplings                     ...  NO (   0 nuclei)
Quadrupole couplings                    ...  NO (   0 nuclei)
Contact density                         ...  NO (   0 nuclei)

NMR properties:
Chemical shifts                         ...  NO (   0 nuclei)
Spin-rotation constants                 ...  NO (   0 nuclei)
Spin-spin couplings                     ...  NO (   0 nuclei,    0 pairs)

Choice of magnetic origin               ... GIAO
Position of magnetic origin             ...     0.000000     0.000000     0.000000

Properties with geometric perturbations:
SCF Hessian                             ...  NO
IR spectrum                             ...  NO
VCD spectrum                            ...  NO
X-ray spectroscopy properties:
SCF XES/XAS/RIXS spectra                ...  NO

SCF SOC stabilization energy            ...  NO
Diagonal Born-Oppenheimer correction    ...  NO

-------------
DIPOLE MOMENT
-------------

Method             : SCF
Type of density    : Electron Density
Multiplicity       :   3
Irrep              :   0
Energy             :  -149.6801973067883296 Eh
Basis              : AO
                                X                 Y                 Z
Electronic contribution:     -0.000000000       0.000000000      -0.000000000
Nuclear contribution   :     -0.000000000       0.000000000       0.000000000
                        -----------------------------------------
Total Dipole Moment    :     -0.000000000       0.000000000      -0.000000000
                        -----------------------------------------
Magnitude (a.u.)       :      0.000000000
Magnitude (Debye)      :      0.000000000



--------------------
Rotational spectrum 
--------------------
 
Rotational constants in cm-1:             0.000000             1.408933             1.408933 
Rotational constants in MHz :             0.000000         42238.750875         42238.750875 

Dipole components along the rotational axes: 
x,y,z [a.u.] :    -0.000000     0.000000    -0.000000 
x,y,z [Debye]:    -0.000000     0.000000    -0.000000 

 

-------------
DIPOLE MOMENT
-------------

Method             : MP2
Type of density    : Electron Density
Multiplicity       :   3
Level              : Unrelaxed density
Irrep              :   0
Energy             :     0.0000000000000000 Eh
Basis              : AO
                                X                 Y                 Z
Electronic contribution:     -0.000000000      -0.000000000      -0.000000000
Nuclear contribution   :     -0.000000000       0.000000000       0.000000000
                        -----------------------------------------
Total Dipole Moment    :     -0.000000000      -0.000000000      -0.000000000
                        -----------------------------------------
Magnitude (a.u.)       :      0.000000000
Magnitude (Debye)      :      0.000000000



--------------------
Rotational spectrum 
--------------------
 
Rotational constants in cm-1:             0.000000             1.408933             1.408933 
Rotational constants in MHz :             0.000000         42238.750875         42238.750875 

Dipole components along the rotational axes: 
x,y,z [a.u.] :    -0.000000    -0.000000    -0.000000 
x,y,z [Debye]:    -0.000000    -0.000000    -0.000000 

 

-------------
DIPOLE MOMENT
-------------

Method             : MP2
Type of density    : Electron Density
Multiplicity       :   3
Level              : Relaxed density
Irrep              :   0
Energy             :     0.0000000000000000 Eh
Basis              : AO
                                X                 Y                 Z
Electronic contribution:      0.000000000      -0.000000000      -0.000000000
Nuclear contribution   :     -0.000000000       0.000000000       0.000000000
                        -----------------------------------------
Total Dipole Moment    :      0.000000000      -0.000000000      -0.000000000
                        -----------------------------------------
Magnitude (a.u.)       :      0.000000000
Magnitude (Debye)      :      0.000000000



--------------------
Rotational spectrum 
--------------------
 
Rotational constants in cm-1:             0.000000             1.408933             1.408933 
Rotational constants in MHz :             0.000000         42238.750875         42238.750875 

Dipole components along the rotational axes: 
x,y,z [a.u.] :     0.000000    -0.000000    -0.000000 
x,y,z [Debye]:     0.000000    -0.000000    -0.000000 

 

Dipole moment calculation done in   0.0 sec 

Maximum memory used throughout the entire PROP-calculation: 3.1 MB

----------------------------------------------------------------------------
                           ORCA NUMERICAL FREQUENCIES
----------------------------------------------------------------------------

Number of atoms                ... 2
Central differences            ... used
Translation invariance         ... used
Number of displacements        ... 12 - 6
Numerical increment            ... 5.000e-03 bohr
IR-spectrum generation         ... on
Raman-spectrum generation      ... off
Surface Crossing Hessian       ... off

The output will be reduced. Please look at the following files:
SCF program output             ... >tlen_numfreq.lastscf
Integral program output        ... >tlen_numfreq.lastint
Gradient program output        ... >tlen_numfreq.lastgrad
Dipole moment program output   ... >tlen_numfreq.lastmom

	<< Calculating gradient on displaced geometry   1 (of   6) >>
	<< Calculating gradient on displaced geometry   2 (of   6) >>
	<< Calculating gradient on displaced geometry   3 (of   6) >>
	<< Calculating gradient on displaced geometry   4 (of   6) >>
	<< Calculating gradient on displaced geometry   5 (of   6) >>
	<< Calculating gradient on displaced geometry   6 (of   6) >>

-----------------------
VIBRATIONAL FREQUENCIES
-----------------------

Scaling factor for frequencies =  1.000000000  (already applied!)

     0:       0.00 cm**-1
     1:       0.00 cm**-1
     2:       0.00 cm**-1
     3:       0.00 cm**-1
     4:       0.00 cm**-1
     5:    1463.56 cm**-1


------------
NORMAL MODES
------------

These modes are the Cartesian displacements weighted by the diagonal matrix
M(i,i)=1/sqrt(m[i]) where m[i] is the mass of the displaced atom
Thus, these vectors are normalized but *not* orthogonal

                  0          1          2          3          4          5    
      0       0.000000   0.000000   0.000000   0.000000   0.000000  -0.707107
      1       0.000000   0.000000   0.000000   0.000000   0.000000   0.000000
      2       0.000000   0.000000   0.000000   0.000000   0.000000   0.000000
      3       0.000000   0.000000   0.000000   0.000000   0.000000   0.707107
      4       0.000000   0.000000   0.000000   0.000000   0.000000   0.000000
      5       0.000000   0.000000   0.000000   0.000000   0.000000   0.000000


-----------
IR SPECTRUM
-----------

 Mode   freq       eps      Int      T**2         TX        TY        TZ
       cm**-1   L/(mol*cm) km/mol    a.u.
----------------------------------------------------------------------------
  5:   1463.56   0.000000    0.00  0.000000  ( 0.000000 -0.000000  0.000000)

* The epsilon (eps) is given for a Dirac delta lineshape.
** The dipole moment derivative (T) already includes vibrational overlap.

The first frequency considered to be a vibration is 5
The total number of vibrations considered is 1


--------------------------
THERMOCHEMISTRY AT 298.15K
--------------------------

Temperature         ...   298.15 K
Pressure            ...     1.00 atm
Total Mass          ...    32.00 AMU
Quasi RRHO          ...     True
Cut-Off Frequency   ...     1.00 cm^-1
The molecule is recognized as being linear

Throughout the following assumptions are being made:
  (1) The electronic state is orbitally nondegenerate
      but the spin degeneracy is treated
  (2) There are no thermally accessible electronically excited states
  (3) Hindered rotations indicated by low frequency modes are not
      treated as such but are treated as vibrations and this may
      cause some error
  (4) All equations used are the standard statistical mechanics
      equations for an ideal gas
  (5) All vibrations are strictly harmonic

freq.    1463.56  E(vib)   ...       0.00 

------------
INNER ENERGY
------------

The inner energy is: U= E(el) + E(ZPE) + E(vib) + E(rot) + E(trans)
    E(el)   - is the total energy from the electronic structure calculation
              = E(kin-el) + E(nuc-el) + E(el-el) + E(nuc-nuc)
    E(ZPE)  - the the zero temperature vibrational energy from the frequency calculation
    E(vib)  - the the finite temperature correction to E(ZPE) due to population
              of excited vibrational states
    E(rot)  - is the rotational thermal energy
    E(trans)- is the translational thermal energy

Summary of contributions to the inner energy U:
Electronic energy                ...   -150.11526450 Eh
Zero point energy                ...      0.00333423 Eh       2.09 kcal/mol
Thermal vibrational correction   ...      0.00000572 Eh       0.00 kcal/mol
Thermal rotational correction    ...      0.00094418 Eh       0.59 kcal/mol
Thermal translational correction ...      0.00141627 Eh       0.89 kcal/mol
-----------------------------------------------------------------------
Total thermal energy                   -150.10956410 Eh


Summary of corrections to the electronic energy:
(perhaps to be used in another calculation)
Total thermal correction                  0.00236617 Eh       1.48 kcal/mol
Non-thermal (ZPE) correction              0.00333423 Eh       2.09 kcal/mol
-----------------------------------------------------------------------
Total correction                          0.00570040 Eh       3.58 kcal/mol


--------
ENTHALPY
--------

The enthalpy is H = U + kB*T
                kB is Boltzmann's constant
Total thermal energy              ...   -150.10956410 Eh 
Thermal Enthalpy correction       ...      0.00094421 Eh       0.59 kcal/mol
-----------------------------------------------------------------------
Total Enthalpy                    ...   -150.10861990 Eh


Note: Rotational entropy computed according to Herzberg 
Infrared and Raman Spectra, Chapter V,1, Van Nostrand Reinhold, 1945 
Point Group:  D(inf)h, Symmetry Number:   2  
Rotational constants in cm-1:     0.000000     1.408934     1.408934 

Vibrational entropy computed according to the QRRHO of S. Grimme
Chem.Eur.J. 2012 18 9955 using a reference frequency of 100.0 cm-1


-------
ENTROPY
-------

The entropy contributions are T*S = T*(S(el)+S(vib)+S(rot)+S(trans))
     S(el)   - electronic entropy
     S(vib)  - vibrational entropy
     S(rot)  - rotational entropy
     S(trans)- translational entropy
The entropies will be listed as multiplied by the temperature to get
units of energy

Electronic entropy                ...      0.00103729 Eh      0.65 kcal/mol
Vibrational entropy               ...      0.00000653 Eh      0.00 kcal/mol
Rotational entropy                ...      0.00500211 Eh      3.14 kcal/mol
Translational entropy             ...      0.01725741 Eh     10.83 kcal/mol
-----------------------------------------------------------------------
Final entropy term                ...      0.02330333 Eh     14.62 kcal/mol


-------------------
GIBBS FREE ENERGY
-------------------

The Gibbs free energy is G = H - T*S

Total enthalpy                    ...   -150.10861990 Eh 
Total entropy correction          ...     -0.02330333 Eh    -14.62 kcal/mol
-----------------------------------------------------------------------
Final Gibbs free energy         ...   -150.13192323 Eh

For completeness - the Gibbs free energy minus the electronic energy
G-E(el)                           ...     -0.01665872 Eh    -10.45 kcal/mol



--------------------------------
SUGGESTED CITATIONS FOR THIS RUN
--------------------------------

Below you find a list of papers that are relevant to this ORCA run
We neither can nor want to force you to cite these papers, but we appreciate if you do
You receive ORCA, which is the product of decades of hard work by many enthusiastic individuals, for free
The only thing we kindly ask in return is that you cite our papers,
We deeply appreciate it, if you show your appreciation for ORCA by not just citing the generic ORCA reference.

Please note that relegating all ORCA citations to the supporting information does *not* help us.
SI sections are not indexed - citations you put there will not count into any citation statistics
But we need these citations in order to attract the funding resources that allow us to do what we are doing

Therefore, if you are a happy ORCA user, please consider citing a few of the papers listed below in the main body of your paper

In addition to the list printed below, the program has created the file tlen_numfreq.bibtex that contains the list in bibtex format
You can import this file easily into all common literature databanks and citation aid programs

It goes without saying that in many instances, there are alternative algorithms to achieve similar
results as the ones you have gotten from ORCA. It is, of course, also the case that in some instances
ORCA just re-implements algorithms worked out by others. We are fully aware of that and we are also
fully appreciative of our colleagues work. Hence this citation list should not be read as indicating
that the listed papers, which are focused on our own work, are the only ones worth citing. It simply
meant to make it easier for users to cite ORCA specific papers. It is not a substitute for doing your
own literature research and citing the relevant literature in a scientifically appropriate manner.

List of essential papers. We consider these as the minimum necessary citations

  1. Neese, F.
     Software update: the ORCA program system, version 6.0
     WIRES Comput. Molec. Sci. 2025 15(1), e70019
     doi.org/10.1002/wcms.70019

List of papers to cite with high priority. The work reported in these papers was absolutely
necessary for this run to complete.
Our perspective: the developers of density functionals and basis sets usually get cited in chemistry papers
Good! But without the algorithms to do something with them, the functionals or basis sets would not do anything.
Hence, in our opinion, the algorithm design and method developments papers are equally worthy of getting cited

  1. Neese, F.
     The SHARK Integral Generation and Digestion System
     J. Comp. Chem. 2022 44(3), 381
     doi.org/10.1002/jcc.26942

List of suggested additional citations. These are papers that are important in the 'surrounding' of 
of this run, or papers that preceded the highly important papers. If you like your results we are grateful for a citation.

  1. Neese, F.
     The ORCA program system
     WIRES Comput. Molec. Sci. 2012 2(1), 73-78
     doi.org/10.1002/wcms.81
  2. Neese, F.
     Software update: the ORCA program system, version 4.0
     WIRES Comput. Molec. Sci. 2018 8(1), 1-6
     doi.org/10.1002/wcms.1327
  3. Neese, F.; Wennmohs, F.; Becker, U.; Riplinger, C.
     The ORCA quantum chemistry program package
     J. Chem. Phys. 2020 152(22), 224108
     doi.org/10.1063/5.0004608
  4. Neese, F.
     Software update: The ORCA program system—Version 5.0
     WIRES Comput. Molec. Sci. 2022 12(1), e1606
     doi.org/10.1002/wcms.1606

List of optional additional citations

  1. Neese, F.
     Approximate second-order SCF convergence for spin unrestricted wavefunctions
     Chem. Phys. Lett. 2000 325(1-3), 93-98
     doi.org/10.1016/s0009-2614(00)00662-x

Timings for individual modules:

Sum of individual times          ...       28.060 sec (=   0.468 min)
Startup calculation              ...        0.204 sec (=   0.003 min)   0.7 %
SCF iterations                   ...        2.087 sec (=   0.035 min)   7.4 %
Property calculations            ...        0.038 sec (=   0.001 min)   0.1 %
MP2 module                       ...        4.546 sec (=   0.076 min)  16.2 %
Numerical frequency calculation  ...       21.184 sec (=   0.353 min)  75.5 %
                             ****ORCA TERMINATED NORMALLY****
TOTAL RUN TIME: 0 days 0 hours 0 minutes 24 seconds 727 msec
