
                                 *****************
                                 * O   R   C   A *
                                 *****************

                                            #,                                       
                                            ###                                      
                                            ####                                     
                                            #####                                    
                                            ######                                   
                                           ########,                                 
                                     ,,################,,,,,                         
                               ,,#################################,,                 
                          ,,##########################################,,             
                       ,#########################################, ''#####,          
                    ,#############################################,,   '####,        
                  ,##################################################,,,,####,       
                ,###########''''           ''''###############################       
              ,#####''   ,,,,##########,,,,          '''####'''          '####       
            ,##' ,,,,###########################,,,                        '##       
           ' ,,###''''                  '''############,,,                           
         ,,##''                                '''############,,,,        ,,,,,,###''
      ,#''                                            '''#######################'''  
     '                                                          ''''####''''         
             ,#######,   #######,   ,#######,      ##                                
            ,#'     '#,  ##    ##  ,#'     '#,    #''#        ,####,    ,#,          
            ##       ##  ##   ,#'  ##            #'  '#       #'       ,# #          
            ##       ##  #######   ##           ,######,      #####,      #          
            '#,     ,#'  ##    ##  '#,     ,#' ,#      #,     #,   #      #          
             '#######'   ##     ##  '#######'  #'      '#     '####' #    #          



                #########################################################
                #                        -***-                          #
                #          Department of theory and spectroscopy        #
                #                                                       #
                #                      Frank Neese                      #
                #                                                       #
                #     Directorship, Architecture, Infrastructure        #
                #                    SHARK, DRIVERS                     #
                #        Core code/Algorithms in most modules           #
                #                                                       #
                #        Max Planck Institute fuer Kohlenforschung      #
                #                Kaiser Wilhelm Platz 1                 #
                #                 D-45470 Muelheim/Ruhr                 #
                #                      Germany                          #
                #                                                       #
                #                  All rights reserved                  #
                #                        -***-                          #
                #########################################################


                         Program Version 6.1.1  -  RELEASE   -
                                (GIT: $487d211c$)
                          ($2025-11-21 10:33:24 +0100$)


 With contributions from (in alphabetic order):
[Max-Planck-Institut fuer Kohlenforschung]                               
  Daniel Aravena         : Magnetic Suceptibility                        
  Michael Atanasov       : Ab Initio Ligand Field Theory (pilot matlab implementation)
  Alexander A. Auer      : GIAO ZORA, VPT2 properties, NMR spectrum      
  Ute Becker             : All parallelization in ORCA, NUMFREQ, NUMCALC 
  Giovanni Bistoni       : ED, misc. LED, open-shell LED, HFLD           
  Dmytro Bykov           : pre 5.0 version of the SCF Hessian            
  Marcos Casanova-Páez   : Triplet and SCS-CIS(D). UHF-(DLPNO)-IP/EA/STEOM-CCSD. UHF-CVS-IP/STEOM-CCSD   
  Vijay G. Chilkuri      : MRCI spin determinant printing, contributions to CSF-ICE 
  Pauline Colinet        : FMM embedding                                 
  Dipayan Datta          : RHF DLPNO-CCSD density                        
  Achintya Kumar Dutta   : EOM-CC, STEOM-CC                              
  Nicolas Foglia         : Exact transition moments, OPA infrastructure, MCD improvements    
  Dmitry Ganyushin       : Spin-Orbit,Spin-Spin,Magnetic field MRCI      
  Miquel Garcia-Rates    : C-PCM and meta-GGA Hessian, CCSD/C-PCM, Gaussian charge scheme 
  Tiago L. C. Gouveia    : GS-ROHF, GS-ROCIS                             
  Yang Guo               : DLPNO-NEVPT2, F12-NEVPT2, CIM, IAO-localization        
  Andreas Hansen         : Spin unrestricted coupled pair/coupled cluster methods 
  Ingolf Harden          : AUTO-CI MPn and infrastructure                
  Benjamin Helmich-Paris : MC-RPA, TRAH-(SCF,CASSCF), AVAS, COSX integrals, SCF dyn. polar., MC-PDFT, srDFT 
  Lee Huntington         : MR-EOM, pCC                                   
  Robert Izsak           : Overlap fitted RIJCOSX, COSX-SCS-MP3, EOM     
  Riya Kayal             : Wick's Theorem for AUTO-CI, AUTO-CI UHF-CCSDT 
  Emily Kempfer          : AUTO-CI RHF CISDT and CCSDT, approximate NEVPT4
  Christian Kollmar      : KDIIS, OOCD, Brueckner-CCSD(T), CCSD density, CASPT2, CASPT2-K, improved NEVPT2 
  Axel Koslowski         : Symmetry handling                             
  Simone Kossmann        : meta-GGA functionals, TD-DFT gradient, OOMP2, (MP2 Hessian; deprecated post 5.0) 
  Lucas Lang             : DCDCAS, Hyperfine gauge corrections, ICE-SOC+SSC
  Marvin Lechner         : AUTO-CI (C++ implementation), FIC-MRCC        
  Spencer Leger          : CASSCF response                               
  Dagmar Lenk            : GEPOL surface, SMD, ORCA-2-JSON               
  Dimitrios Liakos       : Extrapolation schemes; Compound Job, Property file
  Dimitrios Manganas     : Further ROCIS development; embedding schemes. LFT, Crystal Embedding 
  Dimitrios Pantazis     : SARC Basis sets                               
  Anastasios Papadopoulos: AUTO-CI, single reference methods and gradients 
  Taras Petrenko         : pre 6.0 DFT Hessian and TD-DFT gradient,  ECA, NRVS 
  Petra Pikulova         : Analytic Raman intensities                    
  Peter Pinski           : DLPNO-MP2, DLPNO-MP2 Gradient                 
  Shashank Vittal Rao    : ES-AILFT, MagRelax                            
  Christoph Reimann      : Effective Core Potentials                     
  Marius Retegan         : Local ZFS, SOC                                
  Christoph Riplinger    : Optimizer, TS searches, QM/MM, DLPNO-CCSD(T), (RO)-DLPNO pert. Triples 
  Michael Roemelt        : Original ROCIS implementation, recursive CI coupling coefficients
  Masaaki Saitow         : Open-shell DLPNO-CCSD energy and density      
  Barbara Sandhoefer     : DKH picture change effects                    
  Yorick L. A. Schmerwitz: GMF and freeze-and-release deltaSCF, NEB S-IDPP initial path                    
  Kantharuban Sivalingam : CASSCF convergence/infrastructure, NEVPT2, NEVPT3, NEVPT4(SD), FIC-MRCI and CEPA variants
  Bernardo de Souza      : ESD, SOC TD-DFT                               
  Georgi L. Stoychev     : AutoAux, RI-MP2 NMR, DLPNO-MP2 response, X2C  
  Van Anh Tran           : RI-MP2 g-tensors                              
  Willem Van den Heuvel  : Paramagnetic NMR                              
  Zikuan Wang            : NOTCH, Electric field optimization            
  Frank Wennmohs         : Technical directorship and infrastructure     
  Hang Xu                : AUTO-CI-Response properties                   
                                                                         
[FACCTs GmbH]                                                            
  Markus Bursch, Nicolas Foglia, Miquel Garcia-Rates, Ingolf Harden, Hagen Neugebauer, Anastasios Papadopoulos, 
  Christoph Riplinger, Bernardo de Souza, Georgi L. Stoychev                                                    
                                                                 
  APM, various basis sets, CI-OPT, improved COSX, DLPNO-Multilevel,           
  DOCKER, DRACO, updates on ESD, Fragmentator, GOAT, IRC, LR-CPCM, L-BFGS, MBIS, meta-GGA TD-DFT gradient, ML-optimized integration grids, 
  MM, NACMEs, nearIR, NEB, NEB-TS, NL-DFT gradient (VV10), 2- and 3-layer-ONIOM, interface openCOSMO-RS, QMMM,   
  Crystal-QMMM, RESP, rigid body optimization, SF, symmetry and pop. for TD-DFT, various functionals, SOLVATOR                                   
                                                                         
[Other institutions]                                                     
  V. Asgeirsson          : NEB                                           
  Christoph Bannwarth    : sTDA-DFT, sTD-DFT, PBEh-3c, B97-3c, D3        
  Giovanni Bistoni       : ETS/NOCV, ADLD/ADEX, COVALED                  
  Martin Brehm           : Molecular dynamics                            
  Ronald Cardenas        : ETS/NOCV                                      
  Martina Colucci        : COVALED                                       
  Sebastian Ehlert       : rSCAN, r2SCAN, r2SCAN-3c, D4, dhf basis sets  
  Marvin Friede          : D4 for Fr, Ra, Ac-Lr                          
  Lars Goerigk           : TD-DFT with DH, B97 family of functionals     
  Stefan Grimme          : VdW corrections, initial TS optimization, DFT functionals, gCP, sTDA/sTD-DF 
  Waldemar Hujo          : DFT-NL                                        
  H. Jonsson             : NEB                                           
  Holger Kruse           : gCP                                           
  Marcel Mueller         : wB97X-3c, vDZP basis set                      
  Hagen Neugebauer       : wr2SCAN, Native XTB                           
  Gianluca Regni         : ADLD/ADEX                                     
  Tobias Risthaus        : pre 6.0 range-separated hybrid DFT and stability analysis
  Lukas Wittmann         : regularized MP2, r2SCAN double-hybrids, wr2SCAN        
                                                                         
We gratefully acknowledge several colleagues who have allowed us to      
interface, adapt or use parts of their codes:                            
  Ed Valeev, F. Pavosevic, A. Kumar             : LibInt (2-el integral package), F12 methods 
  Garnet Chan, S. Sharma, J. Yang, R. Olivares  : DMRG                   
  Ulf Ekstrom                                   : XCFun DFT Library      
  Mihaly Kallay                                 : mrcc  (arbitrary order and MRCC methods)
  Frank Weinhold                                : gennbo (NPA and NBO analysis)           
  Simon Mueller                                 : openCOSMO-RS                            
  Christopher J. Cramer and Donald G. Truhlar   : smd solvation model                     
  S Lehtola, MJT Oliveira, MAL Marques          : LibXC Library                           
  Liviu Ungur et al                             : ANISO software                          


 Your calculation uses the libint2 library for the computation of 2-el integrals
 For citations please refer to: http://libint.valeyev.net

 Your ORCA version has been built with support for libXC version: 7.0.0
 For citations please refer to: https://libxc.gitlab.io

 This ORCA versions uses:
   CBLAS   interface :  Fast vector & matrix operations
   LAPACKE interface :  Fast linear algebra routines
   SCALAPACK package :  Parallel linear algebra routines
   Shared memory     :  Shared parallel matrices
   BLAS/LAPACK       :  OpenBLAS 0.3.29  USE64BITINT DYNAMIC_ARCH NO_AFFINITY Haswell SINGLE_THREADED
        Core in use  :  Haswell
   Copyright (c) 2011-2014, The OpenBLAS Project


  ***********************************
  * Starting time: Tue Jan 20 18:58:25 2026
  * Host name:     Maks
  * Process ID:    2563
  * Working dir.:  /home/maksy/Chemia_obliczeniowa/Cwiczenia5
  ***********************************

================================================================================

----- Orbital basis set information -----
Your calculation utilizes the basis: def2-TZVP
   F. Weigend and R. Ahlrichs, Phys. Chem. Chem. Phys. 7, 3297 (2005).

================================================================================
                                        WARNINGS
                       Please study these warnings very carefully!
================================================================================


WARNING: your system is open-shell and RHF/RKS was chosen
  ===> : WILL SWITCH to UHF/UKS


WARNING: The frozen-core approximation for MP2-gradient calculations is turned on by default.

WARNING: Geometry Optimization
  ===> : Switching off AutoStart
         For restart on a previous wavefunction, please use MOREAD

WARNING: Post HF methods need fully converged wavefunctions
  ===> : Setting SCFConvForced true
         You can overwrite this default with %scf ConvForced false 


================================================================================
                                       INPUT FILE
================================================================================
NAME = tlen.inp
|  1> ! MP2 def2-TZVP Opt
|  2> * xyz 0 3
|  3>  O         0.000000        0.000000        0.000000
|  4>  O         1.400000        0.000000        0.000000
|  5> *
|  6> 
|  7>                          ****END OF INPUT****
================================================================================

                       *****************************
                       * Geometry Optimization Run *
                       *****************************

Geometry optimization settings:
Update method            Update   .... BFGS
Choice of coordinates    CoordSys .... (2022) Redundant Internals
Initial Hessian          InHess   .... Almloef's Model
Max. no of cycles        MaxIter  .... 50

Convergence Tolerances:
Energy Change            TolE     ....  5.0000e-06 Eh
Max. Gradient            TolMAXG  ....  3.0000e-04 Eh/bohr
RMS Gradient             TolRMSG  ....  1.0000e-04 Eh/bohr
Max. Displacement        TolMAXD  ....  4.0000e-03 bohr
RMS Displacement         TolRMSD  ....  2.0000e-03 bohr
Strict Convergence                .... False

------------------------------------------------------------------------------
                        ORCA OPTIMIZATION COORDINATE SETUP
------------------------------------------------------------------------------

The optimization will be done in redundant internal coordinates (2022)
Making redundant internal coordinates   ...  (2022 redundants) done
Evaluating the initial hessian          ...  (Almloef) done
Evaluating the coordinates              ...  done
Calculating the B-matrix                .... done
Calculating the G-matrix                .... done
The number of degrees of freedom        ....    1

    -----------------------------------------------------------------
                    Redundant Internal Coordinates


    -----------------------------------------------------------------
         Definition                    Initial Value    Approx d2E/dq
    -----------------------------------------------------------------
      1. B(O   1,O   0)                  1.4000         0.483123   
    -----------------------------------------------------------------

Number of atoms                         .... 2
Number of degrees of freedom            .... 1


         *************************************************************
         *                GEOMETRY OPTIMIZATION CYCLE   1            *
         *************************************************************
---------------------------------
CARTESIAN COORDINATES (ANGSTROEM)
---------------------------------
  O      0.000000    0.000000    0.000000
  O      1.400000    0.000000    0.000000

----------------------------
CARTESIAN COORDINATES (A.U.)
----------------------------
  NO LB      ZA    FRAG     MASS         X           Y           Z
   0 O     8.0000    0    15.999    0.000000    0.000000    0.000000
   1 O     8.0000    0    15.999    2.645617    0.000000    0.000000

--------------------------------
INTERNAL COORDINATES (ANGSTROEM)
--------------------------------
 O      0   0   0     0.000000000000     0.00000000     0.00000000
 O      1   0   0     1.400000000000     0.00000000     0.00000000

---------------------------
INTERNAL COORDINATES (A.U.)
---------------------------
 O      0   0   0     0.000000000000     0.00000000     0.00000000
 O      1   0   0     2.645616587490     0.00000000     0.00000000

---------------------
BASIS SET INFORMATION
---------------------
There are 1 groups of distinct atoms

 Group   1 Type O   : 11s6p2d1f contracted to 5s3p2d1f pattern {62111/411/11/1}

Atom   0O    basis set group =>   1
Atom   1O    basis set group =>   1
------------------------------------------------------------------------------
                             ORCA STARTUP CALCULATIONS
------------------------------------------------------------------------------
------------------------------------------------------------------------------
                   ___                                                        
                  /   \      - P O W E R E D   B Y -                         
                 /     \                                                     
                 |  |  |   _    _      __       _____    __    __             
                 |  |  |  | |  | |    /  \     |  _  \  |  |  /  |          
                  \  \/   | |  | |   /    \    | | | |  |  | /  /          
                 / \  \   | |__| |  /  /\  \   | |_| |  |  |/  /          
                |  |  |   |  __  | /  /__\  \  |    /   |      \           
                |  |  |   | |  | | |   __   |  |    \   |  |\   \          
                \     /   | |  | | |  |  |  |  | |\  \  |  | \   \       
                 \___/    |_|  |_| |__|  |__|  |_| \__\ |__|  \__/        
                                                                              
                      - O R C A' S   B I G   F R I E N D -                    
                                      &                                       
                       - I N T E G R A L  F E E D E R -                       
                                                                              
 v1 FN, 2020, v2 2021, v3 2022-2024                                           
------------------------------------------------------------------------------


----------------------
SHARK INTEGRAL PACKAGE
----------------------

Number of atoms                             ...      2
Number of basis functions                   ...     62
Number of shells                            ...     22
Maximum angular momentum                    ...      3
Integral batch strategy                     ... SHARK/LIBINT Hybrid
RI-J (if used) integral strategy            ... SPLIT-RIJ (Revised 2003 algorithm where possible)
Printlevel                                  ...      1
Contraction scheme used                     ... SEGMENTED contraction
Prescreening option                         ... SCHWARTZ
   Thresh                                   ... 2.500e-11
   Tcut                                     ... 2.500e-12
   Tpresel                                  ... 2.500e-12 
Coulomb Range Separation                    ... NOT USED
Exchange Range Separation                   ... NOT USED
Multipole approximations                    ... NOT USED
Finite Nucleus Model                        ... NOT USED
CABS basis                                  ... NOT available
Auxiliary Coulomb fitting basis             ... NOT available
Auxiliary J/K fitting basis                 ... NOT available
Auxiliary Correlation fitting basis         ... NOT available
Auxiliary 'external' fitting basis          ... NOT available

Checking pre-screening integrals            ... done (  0.0 sec) Dimension = 22
   => SHARK Basis and OBASIS are compatible. Storing Pre-screening
Shell pair information
Shell pair cut-off parameter TPreSel        ...   2.5e-12
Total number of shell pairs                 ...       253
Shell pairs after pre-screening             ...       250
Total number of primitive shell pairs       ...       864
Primitive shell pairs kept                  ...       765
          la=0 lb=0:     52 shell pairs
          la=1 lb=0:     60 shell pairs
          la=1 lb=1:     21 shell pairs
          la=2 lb=0:     40 shell pairs
          la=2 lb=1:     24 shell pairs
          la=2 lb=2:     10 shell pairs
          la=3 lb=0:     20 shell pairs
          la=3 lb=1:     12 shell pairs
          la=3 lb=2:      8 shell pairs
          la=3 lb=3:      3 shell pairs

Checking whether 4 symmetric matrices of dimension 62 fit in memory
:Max Core in MB      =   4096.00
 MB in use           =      2.19
 MB left             =   4093.81
 MB needed           =      0.06
 Data fit in memory  = YES
Calculating Nuclear repulsion               ... done (  0.0 sec) ENN=     24.190958093714 Eh

Diagonalization of the overlap matrix:
Smallest eigenvalue                        ... 6.626e-03
Time for diagonalization                   ...    0.006 sec
Threshold for overlap eigenvalues          ... 1.000e-07
Number of eigenvalues below threshold      ... 0
Time for construction of square roots      ...    0.000 sec
Total time needed                          ...    0.007 sec

-------------------
DFT GRID GENERATION
-------------------

General Integration Accuracy     IntAcc      ... 4.388
Radial Grid Type                 RadialGrid  ... OptM3 with GC (2021)
Angular Grid (max. ang.)         AngularGrid ... 4 (Lebedev-302)
Angular grid pruning method      GridPruning ... 4 (adaptive)
Weight generation scheme         WeightScheme... mBecke (2022)
Basis function cutoff            BFCut       ... 1.0000e-11
Integration weight cutoff        WCut        ... 1.0000e-14
Partially contracted basis set               ... off
Rotationally invariant grid construction     ... off
Angular grids for H and He will be reduced by one unit

Total number of grid points                  ...    12262
Total number of batches                      ...      192
Average number of points per batch           ...       63
Average number of grid points per atom       ...     6131
Grids setup in   0.0 sec
Initializing property integral containers    ... done (  0.0 sec)

SHARK setup successfully completed in   0.2 seconds

Maximum memory used throughout the entire STARTUP-calculation: 12.5 MB
-------------------------------------------------------------------------------
                                 ORCA GUESS
                   Start orbitals & Density for SCF / CASSCF
-------------------------------------------------------------------------------

------------
SCF SETTINGS
------------
Hamiltonian:
 Ab initio Hamiltonian  Method          .... Hartree-Fock(GTOs)


General Settings:
 Integral files         IntName         .... tlen
 Hartree-Fock type      HFTyp           .... UHF
 Total Charge           Charge          ....    0
 Multiplicity           Mult            ....    3
 Number of Electrons    NEL             ....   16
 Basis Dimension        Dim             ....   62
 Nuclear Repulsion      ENuc            ....     24.1909580937 Eh

Convergence Acceleration:
 AO-DIIS                CNVDIIS         .... on
   Start iteration      DIISMaxIt       ....    12
   Startup error        DIISStart       ....  0.200000
   # of expansion vecs  DIISMaxEq       ....     5
   Bias factor          DIISBfac        ....   1.050
   Max. coefficient     DIISMaxC        ....  10.000
 MO-DIIS                CNVKDIIS        .... off
 Trust-Rad. Augm. Hess. CNVTRAH         .... auto
   Auto Start mean grad. ratio tolernc. ....  1.125000
   Auto Start start iteration           ....    50
   Auto Start num. interpolation iter.  ....    10
   Max. Number of Micro iterations      ....    24
   Max. Number of Macro iterations      .... Maxiter - #DIIS iter
   Number of Davidson start vectors     ....     2
   Converg. threshold    (grad. norm)   ....   1.000e-05
   Grad. Scal. Fac. for Micro threshold ....   0.100
   Minimum threshold for Micro iter.    ....   1.000e-02
   NR start threshold (gradient norm)   ....   1.000e-04
   Initial trust radius                 ....   0.400
   Minimum AH scaling param. (alpha)    ....   1.000
   Maximum AH scaling param. (alpha)    .... 1000.000
   Quad. conv. algorithm                .... NR
   White noise on init. David. guess    .... on
   Maximum white noise                  ....   0.010
   Pseudo random numbers                .... off
   Inactive MOs                         .... canonical
   Orbital update algorithm             .... Taylor
   Preconditioner                       .... Diag
   Full preconditioner red. dimension   ....   250
 SOSCF                 CNVSOSCF           .... on
   Start iteration     SOSCFMaxIt         ....   150
   Startup grad/error  SOSCFStart         ....  0.003300
   Hessian update      SOSCFHessUp        .... L-BFGS
   Autom. constraints  SOSCFAutoConstrain .... off
 Level Shifting         CNVShift        .... on
   Level shift para.    LevelShift      ....    0.2500
   Turn off err/grad.   ShiftErr        ....    0.0010
 Zerner damping         CNVZerner       .... off
 Static damping         CNVDamp         .... on
   Fraction old density DampFac         ....    0.7000
   Max. Damping (<1)    DampMax         ....    0.9800
   Min. Damping (>=0)   DampMin         ....    0.0000
   Turn off err/grad.   DampErr         ....    0.1000

SCF Procedure:
 Maximum # iterations   MaxIter         ....   125
 SCF integral mode      SCFMode         .... Direct
   Integral package                     .... SHARK and LIBINT hybrid scheme
 Reset frequency        DirectResetFreq ....    20
 Integral Threshold     Thresh          ....  2.500e-11 Eh
 Primitive CutOff       TCut            ....  2.500e-12 Eh

Convergence Tolerance:
 Convergence Check Mode ConvCheckMode   .... Total+1el-Energy
 Convergence forced     ConvForced      .... 1
 Energy Change          TolE            ....  1.000e-08 Eh
 1-El. energy change                    ....  1.000e-05 Eh
 Orbital Gradient       TolG            ....  1.000e-05
 Orbital Rotation angle TolX            ....  1.000e-05
 DIIS Error             TolErr          ....  5.000e-07

------------------------------
INITIAL GUESS: MODEL POTENTIAL
------------------------------
Loading Hartree-Fock densities                     ... done
Calculating cut-offs                               ... done
Initializing the effective Hamiltonian             ... done
Setting up the integral package (SHARK)            ... done
Starting the Coulomb interaction                   ... done (   0.0 sec)
Making the grid                                    ... done (   0.0 sec)
Mapping shells                                     ... done
Starting the XC term evaluation                    ... done (   0.0 sec)
Transforming the Hamiltonian                       ... done (   0.0 sec)
Diagonalizing the Hamiltonian                      ... done (   0.0 sec)
Back transforming the eigenvectors                 ... done (   0.0 sec)
Now organizing SCF variables                       ... done
                      ------------------
                      INITIAL GUESS DONE (   0.0 sec)
                      ------------------
             **** ENERGY FILE WAS UPDATED (tlen.en.tmp) ****
Finished Guess after   0.1 sec
Maximum memory used throughout the entire GUESS-calculation: 6.4 MB

-------------------------------------------------------------------------------------------
                                      ORCA LEAN-SCF
                              memory conserving SCF solver
-------------------------------------------------------------------------------------------

----------------------------------------D-I-I-S--------------------------------------------
Iteration    Energy (Eh)           Delta-E    RMSDP     MaxDP     DIISErr   Damp  Time(sec)
-------------------------------------------------------------------------------------------
               ***  Starting incremental Fock matrix formation  ***
    1    -149.5593980361099113     0.00e+00  6.64e-04  7.94e-03  1.69e-01  0.700   0.1
    2    -149.5716086277483328    -1.22e-02  5.82e-04  6.88e-03  1.21e-01  0.700   0.1
                               ***Turning on AO-DIIS***
    3    -149.5813405039182271    -9.73e-03  5.60e-04  6.68e-03  8.68e-02  0.700   0.1
    4    -149.5890072938171897    -7.67e-03  1.57e-03  1.87e-02  6.08e-02  0.000   0.1
    5    -149.6124395814011336    -2.34e-02  3.20e-04  3.13e-03  7.10e-03  0.000   0.1
    6    -149.6131523842657316    -7.13e-04  2.18e-04  2.23e-03  3.41e-03  0.000   0.1
                              *** Initializing SOSCF ***
---------------------------------------S-O-S-C-F--------------------------------------
Iteration    Energy (Eh)           Delta-E    RMSDP     MaxDP     MaxGrad    Time(sec)
--------------------------------------------------------------------------------------
    7    -149.6133537903122033    -2.01e-04  6.97e-05  6.59e-04  8.62e-04     0.1
               *** Restarting incremental Fock matrix formation ***
    8    -149.6133721288960601    -1.83e-05  1.56e-05  2.06e-04  3.99e-04     0.1
    9    -149.6133733142161759    -1.19e-06  1.25e-05  1.46e-04  1.92e-04     0.1
   10    -149.6133736718998080    -3.58e-07  1.11e-06  1.84e-05  3.87e-05     0.1
   11    -149.6133736787610644    -6.86e-09  5.92e-07  7.44e-06  1.21e-05     0.1
                 **** Energy Check signals convergence ****

               *****************************************************
               *                     SUCCESS                       *
               *           SCF CONVERGED AFTER  11 CYCLES          *
               *****************************************************

             **** ENERGY FILE WAS UPDATED (tlen.en.tmp) ****

----------------
TOTAL SCF ENERGY
----------------

Total Energy       :       -149.61337367965555 Eh           -4071.18687 eV

Components:
Nuclear Repulsion  :         24.19095809371429 Eh             658.26944 eV
Electronic Energy  :       -173.80433177336985 Eh           -4729.45631 eV
One Electron Energy:       -254.01735364458733 Eh           -6912.16360 eV
Two Electron Energy:         80.21302187121748 Eh            2182.70729 eV

Virial components:
Potential Energy   :       -298.55788927920810 Eh           -8124.17319 eV
Kinetic Energy     :        148.94451559955252 Eh            4052.98632 eV
Virial Ratio       :          2.00449065262598

---------------
SCF CONVERGENCE
---------------

  Last Energy change         ...    6.8613e-09  Tolerance :   1.0000e-08
  Last MAX-Density change    ...    7.4419e-06  Tolerance :   1.0000e-07
  Last RMS-Density change    ...    5.9182e-07  Tolerance :   5.0000e-09
  Last DIIS Error            ...    8.6156e-04  Tolerance :   5.0000e-07
  Last Orbital Gradient      ...    1.2117e-05  Tolerance :   1.0000e-05
  Last Orbital Rotation      ...    8.5554e-06  Tolerance :   1.0000e-05


----------------------
UHF SPIN CONTAMINATION
----------------------

Expectation value of <S**2>     :     2.064036
Ideal value S*(S+1) for S=1.0   :     2.000000
Deviation                       :     0.064036

----------------
ORBITAL ENERGIES
----------------
                 SPIN UP ORBITALS
  NO   OCC          E(Eh)            E(eV) 
   0   1.0000     -20.787066      -565.6448 
   1   1.0000     -20.786726      -565.6356 
   2   1.0000      -1.592101       -43.3233 
   3   1.0000      -1.270893       -34.5828 
   4   1.0000      -0.794941       -21.6314 
   5   1.0000      -0.794941       -21.6314 
   6   1.0000      -0.704837       -19.1796 
   7   1.0000      -0.622340       -16.9347 
   8   1.0000      -0.622340       -16.9347 
   9   0.0000       0.188380         5.1261 
  10   0.0000       0.466049        12.6818 
  11   0.0000       0.518586        14.1115 
  12   0.0000       0.518586        14.1115 
  13   0.0000       0.534636        14.5482 
  14   0.0000       0.604378        16.4460 
  15   0.0000       0.610143        16.6028 
  16   0.0000       0.610143        16.6028 
  17   0.0000       0.857101        23.3229 
  18   0.0000       1.450004        39.4566 
  19   0.0000       1.450004        39.4566 

                 SPIN DOWN ORBITALS
  NO   OCC          E(Eh)            E(eV) 
   0   1.0000     -20.730226      -564.0981 
   1   1.0000     -20.729556      -564.0799 
   2   1.0000      -1.438026       -39.1307 
   3   1.0000      -1.052566       -28.6418 
   4   1.0000      -0.658027       -17.9058 
   5   1.0000      -0.503361       -13.6972 
   6   1.0000      -0.503361       -13.6972 
   7   0.0000       0.034918         0.9502 
   8   0.0000       0.034918         0.9502 
   9   0.0000       0.253106         6.8874 
  10   0.0000       0.477038        12.9809 
  11   0.0000       0.558826        15.2064 
  12   0.0000       0.582416        15.8484 
  13   0.0000       0.582416        15.8484 
  14   0.0000       0.600477        16.3398 
  15   0.0000       0.679767        18.4974 
  16   0.0000       0.679767        18.4974 
  17   0.0000       0.873498        23.7691 
*Only the first 10 virtual orbitals were printed.

                    ********************************
                    * MULLIKEN POPULATION ANALYSIS *
                    ********************************

--------------------------------------------
MULLIKEN ATOMIC CHARGES AND SPIN POPULATIONS
--------------------------------------------
   0 O :    0.000000    1.000000
   1 O :   -0.000000    1.000000
Sum of atomic charges         :   -0.0000000
Sum of atomic spin populations:    2.0000000

-----------------------------------------------------
MULLIKEN REDUCED ORBITAL CHARGES AND SPIN POPULATIONS
-----------------------------------------------------
CHARGE
  0 O s       :     3.930485  s :     3.930485
      pz      :     1.489230  p :     4.030089
      px      :     1.051629
      py      :     1.489230
      dz2     :     0.004173  d :     0.036920
      dxz     :     0.010114
      dyz     :     0.000000
      dx2y2   :     0.012519
      dxy     :     0.010114
      f0      :     0.000246  f :     0.002506
      f+1     :     0.000447
      f-1     :     0.000041
      f+2     :     0.000410
      f-2     :     0.000000
      f+3     :     0.000745
      f-3     :     0.000615

  1 O s       :     3.930485  s :     3.930485
      pz      :     1.489230  p :     4.030089
      px      :     1.051629
      py      :     1.489230
      dz2     :     0.004173  d :     0.036920
      dxz     :     0.010114
      dyz     :     0.000000
      dx2y2   :     0.012519
      dxy     :     0.010114
      f0      :     0.000246  f :     0.002506
      f+1     :     0.000447
      f-1     :     0.000041
      f+2     :     0.000410
      f-2     :     0.000000
      f+3     :     0.000745
      f-3     :     0.000615


SPIN
  0 O s       :     0.022380  s :     0.022380
      pz      :     0.504226  p :     0.984855
      px      :    -0.023597
      py      :     0.504226
      dz2     :     0.000370  d :    -0.006583
      dxz     :    -0.004031
      dyz     :    -0.000000
      dx2y2   :     0.001109
      dxy     :    -0.004031
      f0      :    -0.000073  f :    -0.000652
      f+1     :    -0.000098
      f-1     :    -0.000012
      f+2     :    -0.000122
      f-2     :     0.000000
      f+3     :    -0.000163
      f-3     :    -0.000183

  1 O s       :     0.022380  s :     0.022380
      pz      :     0.504226  p :     0.984855
      px      :    -0.023597
      py      :     0.504226
      dz2     :     0.000370  d :    -0.006583
      dxz     :    -0.004031
      dyz     :    -0.000000
      dx2y2   :     0.001109
      dxy     :    -0.004031
      f0      :    -0.000073  f :    -0.000652
      f+1     :    -0.000098
      f-1     :    -0.000012
      f+2     :    -0.000122
      f-2     :     0.000000
      f+3     :    -0.000163
      f-3     :    -0.000183



                     *******************************
                     * LOEWDIN POPULATION ANALYSIS *
                     *******************************

-------------------------------------------
LOEWDIN ATOMIC CHARGES AND SPIN POPULATIONS
-------------------------------------------
   0 O :    0.000000    1.000000
   1 O :   -0.000000    1.000000

----------------------------------------------------
LOEWDIN REDUCED ORBITAL CHARGES AND SPIN POPULATIONS
----------------------------------------------------
CHARGE
  0 O s       :     3.765352  s :     3.765352
      pz      :     1.478885  p :     4.140888
      px      :     1.183119
      py      :     1.478885
      dz2     :     0.011929  d :     0.086452
      dxz     :     0.019369
      dyz     :     0.000000
      dx2y2   :     0.035786
      dxy     :     0.019369
      f0      :     0.000655  f :     0.007308
      f+1     :     0.001431
      f-1     :     0.000109
      f+2     :     0.001091
      f-2     :     0.000000
      f+3     :     0.002385
      f-3     :     0.001637

  1 O s       :     3.765352  s :     3.765352
      pz      :     1.478885  p :     4.140888
      px      :     1.183119
      py      :     1.478885
      dz2     :     0.011929  d :     0.086452
      dxz     :     0.019369
      dyz     :     0.000000
      dx2y2   :     0.035786
      dxy     :     0.019369
      f0      :     0.000655  f :     0.007308
      f+1     :     0.001431
      f-1     :     0.000109
      f+2     :     0.001091
      f-2     :     0.000000
      f+3     :     0.002385
      f-3     :     0.001637


SPIN
  0 O s       :     0.022094  s :     0.022094
      pz      :     0.497190  p :     0.968419
      px      :    -0.025960
      py      :     0.497190
      dz2     :     0.000996  d :     0.008565
      dxz     :     0.002290
      dyz     :    -0.000000
      dx2y2   :     0.002989
      dxy     :     0.002290
      f0      :     0.000195  f :     0.000921
      f+1     :    -0.000045
      f-1     :     0.000033
      f+2     :     0.000325
      f-2     :     0.000000
      f+3     :    -0.000074
      f-3     :     0.000488

  1 O s       :     0.022094  s :     0.022094
      pz      :     0.497190  p :     0.968419
      px      :    -0.025960
      py      :     0.497190
      dz2     :     0.000996  d :     0.008565
      dxz     :     0.002290
      dyz     :    -0.000000
      dx2y2   :     0.002989
      dxy     :     0.002290
      f0      :     0.000195  f :     0.000921
      f+1     :    -0.000045
      f-1     :     0.000033
      f+2     :     0.000325
      f-2     :     0.000000
      f+3     :    -0.000074
      f-3     :     0.000488



                      *****************************
                      * MAYER POPULATION ANALYSIS *
                      *****************************

  NA   - Mulliken gross atomic population
  ZA   - Total nuclear charge
  QA   - Mulliken gross atomic charge
  VA   - Mayer's total valence
  BVA  - Mayer's bonded valence
  FA   - Mayer's free valence

  ATOM       NA         ZA         QA         VA         BVA        FA
  0 O      8.0000     8.0000     0.0000     2.5368     1.9013     0.6356
  1 O      8.0000     8.0000    -0.0000     2.5368     1.9013     0.6356

  Mayer bond orders larger than 0.100000
B(  0-O ,  1-O ) :   1.9013 

-------
TIMINGS
-------

Total SCF time: 0 days 0 hours 0 min 1 sec 

Total time                  ....       1.009 sec
Sum of individual times     ....       0.927 sec  ( 91.9%)

SCF preparation             ....       0.031 sec  (  3.1%)
Fock matrix formation       ....       0.866 sec  ( 85.8%)
  Startup                   ....       0.001 sec  (  0.1% of F)
  Coulomb+Exchange Fock     ....       0.928 sec  (107.2% of F)
Diagonalization             ....       0.000 sec  (  0.0%)
Density matrix formation    ....       0.006 sec  (  0.5%)
Total Energy calculation    ....       0.001 sec  (  0.1%)
Population analysis         ....       0.002 sec  (  0.2%)
Orbital Transformation      ....       0.003 sec  (  0.3%)
Orbital Orthonormalization  ....       0.000 sec  (  0.0%)
DIIS solution               ....       0.012 sec  (  1.2%)
SOSCF solution              ....       0.006 sec  (  0.6%)
Finished LeanSCF after   1.0 sec

Maximum memory used throughout the entire LEANSCF-calculation: 12.1 MB

------------------------------------------------------------------------------
                                ORCA  MP2 
------------------------------------------------------------------------------

Freezing NCore=4 chemical core electrons
MP2 will be done in the AO integral direct mode
The Q1-step will be done using symmetric double matrices
Dimension of the basis                    ...   62
Memory devoted for MP2                    ... 4096 MB   
Memory needed for all in one shot         ...    7 MB
Number of MOs that can be treated together... 4432      
MP2 density construction                  ... relaxed
The MP2 gradient is requested => amplitudes will be stored on disk
Total number of MOs              ...    7
Number of MOs treated per batch  ...    7 
Number of batches necessary      ...    1 
OPERATORS   0/  0 PASS   0
OPERATORS   0/  1 PASS   0
Total number of MOs              ...    7
Number of MOs treated per batch  ...    5 
Number of batches necessary      ...    1 
OPERATORS   1/  0 PASS   0
OPERATORS   1/  1 PASS   0

Correlation energy components
 E2 and T2 for alpha/alpha pairs :     -0.059185496 Eh
 E2 and T2 for beta/beta   pairs :     -0.084906897 Eh
 E2 and T2 for alpha/beta  pairs :     -0.335065572 Eh

-----------------------------------------------
 MP2 CORRELATION ENERGY   :     -0.479157965 Eh
-----------------------------------------------


---------------------
MP2 DENSITY FORMATION
---------------------

Completing the external part of the density      ... done
Storing the unrelaxed density                    ... done

Calculating G(D)                                 ... done
Completing the Lagrangian                        ... done
Solving the Z-vector equations                   ... 
-------------------
SHARK CP-SCF DRIVER
-------------------

Dimension of the orbital basis          ...     62
Dimension of the CPSCF-problem          ...    862
Number of operators                     ...      2
Max. number of iterations               ...    128
Convergence Tolerance                   ... 1.0e-04
Number of perturbations                 ...      1
Perturbation type                       ... REAL

----------------------------
POPLE LINEAR EQUATION SOLVER
----------------------------

  ITERATION   0:   ||err||_max =   7.8207e-02 (   0.1 sec)
  ITERATION   1:   ||err||_max =   1.9280e-02 (   0.1 sec)
  ITERATION   2:   ||err||_max =   3.6276e-03 (   0.1 sec)
  ITERATION   3:   ||err||_max =   9.0002e-04 (   0.1 sec)
  ITERATION   4:   ||err||_max =   1.7202e-04 (   0.1 sec)
  ITERATION   5:   ||err||_max =   5.0859e-05 (   0.1 sec)
                                                 ... done
Finalizing the relaxed density                   ... done
Transforming P to the AO basis                   ... done
Storing the relaxed density                      ... done

------------------------------------
ENERGY WEIGHTED DENSITY FINALIZATION
------------------------------------

Gathering the parts of the W-matrix              ...                                                                                                           done
Forming the Z-density                            ... done
Transforming Z to the AO basis                   ... done
Calculating G(Z)                                 ... done
Finalizing the W-matrix                          ...                                                                                                           done
Transforming W to the AO basis and storing       ... done

                *********************************************
                * UNRELAXED MP2 DENSITY POPULATION ANALYSIS *
                *********************************************

------------------------------------------------------------------------------
                           ORCA POPULATION ANALYSIS
------------------------------------------------------------------------------
Input electron density              ... tlen.pmp2ur
Input spin density                  ... tlen.rmp2ur
BaseName (.gbw .S,...)              ... tlen

                    ********************************
                    * MULLIKEN POPULATION ANALYSIS *
                    ********************************

------------------------------------------
MULLIKEN ATOMIC CHARGES AND SPIN DENSITIES
------------------------------------------
   0 O :    0.000000    1.000000
   1 O :   -0.000000    1.000000
Sum of atomic charges       :   -0.0000000
Sum of atomic spin densities:    2.0000000

---------------------------------------------------
MULLIKEN REDUCED ORBITAL CHARGES AND SPIN DENSITIES
---------------------------------------------------
CHARGE
  0 O s       :     3.924151  s :     3.924151
      pz      :     1.483047  p :     4.013609
      px      :     1.047516
      py      :     1.483047
      dz2     :     0.008356  d :     0.057687
      dxz     :     0.014384
      dyz     :     0.004503
      dx2y2   :     0.016062
      dxy     :     0.014384
      f0      :     0.000534  f :     0.004553
      f+1     :     0.000740
      f-1     :     0.000320
      f+2     :     0.000705
      f-2     :     0.000307
      f+3     :     0.001029
      f-3     :     0.000919
  1 O s       :     3.924151  s :     3.924151
      pz      :     1.483047  p :     4.013609
      px      :     1.047516
      py      :     1.483047
      dz2     :     0.008356  d :     0.057687
      dxz     :     0.014384
      dyz     :     0.004503
      dx2y2   :     0.016062
      dxy     :     0.014384
      f0      :     0.000534  f :     0.004553
      f+1     :     0.000740
      f-1     :     0.000320
      f+2     :     0.000705
      f-2     :     0.000307
      f+3     :     0.001029
      f-3     :     0.000919

SPIN
  0 O s       :     0.025431  s :     0.025431
      pz      :     0.499095  p :     0.975566
      px      :    -0.022624
      py      :     0.499095
      dz2     :     0.001448  d :    -0.000782
      dxz     :    -0.002596
      dyz     :     0.001385
      dx2y2   :     0.001576
      dxy     :    -0.002596
      f0      :     0.000002  f :    -0.000214
      f+1     :    -0.000050
      f-1     :     0.000064
      f+2     :    -0.000048
      f-2     :     0.000034
      f+3     :    -0.000106
      f-3     :    -0.000111
  1 O s       :     0.025431  s :     0.025431
      pz      :     0.499095  p :     0.975566
      px      :    -0.022624
      py      :     0.499095
      dz2     :     0.001448  d :    -0.000782
      dxz     :    -0.002596
      dyz     :     0.001385
      dx2y2   :     0.001576
      dxy     :    -0.002596
      f0      :     0.000002  f :    -0.000214
      f+1     :    -0.000050
      f-1     :     0.000064
      f+2     :    -0.000048
      f-2     :     0.000034
      f+3     :    -0.000106
      f-3     :    -0.000111


                     *******************************
                     * LOEWDIN POPULATION ANALYSIS *
                     *******************************

-----------------------------------------
LOEWDIN ATOMIC CHARGES AND SPIN DENSITIES
-----------------------------------------
   0 O :    0.000000    1.000000
   1 O :   -0.000000    1.000000

--------------------------------------------------
LOEWDIN REDUCED ORBITAL CHARGES AND SPIN DENSITIES
--------------------------------------------------
CHARGE
  0 O s       :     3.759508  s :     3.759508
      pz      :     1.472631  p :     4.120434
      px      :     1.175171
      py      :     1.472631
      dz2     :     0.016862  d :     0.110312
      dxz     :     0.023682
      dyz     :     0.004500
      dx2y2   :     0.041587
      dxy     :     0.023682
      f0      :     0.000953  f :     0.009746
      f+1     :     0.001849
      f-1     :     0.000389
      f+2     :     0.001403
      f-2     :     0.000309
      f+3     :     0.002876
      f-3     :     0.001967
  1 O s       :     3.759508  s :     3.759508
      pz      :     1.472631  p :     4.120434
      px      :     1.175171
      py      :     1.472631
      dz2     :     0.016862  d :     0.110312
      dxz     :     0.023682
      dyz     :     0.004500
      dx2y2   :     0.041587
      dxy     :     0.023682
      f0      :     0.000953  f :     0.009746
      f+1     :     0.001849
      f-1     :     0.000389
      f+2     :     0.001403
      f-2     :     0.000309
      f+3     :     0.002876
      f-3     :     0.001967

SPIN
  0 O s       :     0.024920  s :     0.024920
      pz      :     0.492246  p :     0.959546
      px      :    -0.024947
      py      :     0.492246
      dz2     :     0.002112  d :     0.014179
      dxz     :     0.003558
      dyz     :     0.001384
      dx2y2   :     0.003568
      dxy     :     0.003558
      f0      :     0.000262  f :     0.001356
      f+1     :     0.000018
      f-1     :     0.000108
      f+2     :     0.000386
      f-2     :     0.000035
      f+3     :     0.000006
      f-3     :     0.000541
  1 O s       :     0.024920  s :     0.024920
      pz      :     0.492246  p :     0.959546
      px      :    -0.024947
      py      :     0.492246
      dz2     :     0.002112  d :     0.014179
      dxz     :     0.003558
      dyz     :     0.001384
      dx2y2   :     0.003568
      dxy     :     0.003558
      f0      :     0.000262  f :     0.001356
      f+1     :     0.000018
      f-1     :     0.000108
      f+2     :     0.000386
      f-2     :     0.000035
      f+3     :     0.000006
      f-3     :     0.000541


                      *****************************
                      * MAYER POPULATION ANALYSIS *
                      *****************************

  NA   - Mulliken gross atomic population
  ZA   - Total nuclear charge
  QA   - Mulliken gross atomic charge
  VA   - Mayer's total valence
  BVA  - Mayer's bonded valence
  FA   - Mayer's free valence

  ATOM       NA         ZA         QA         VA         BVA        FA
  0 O      8.0000     8.0000     0.0000     2.7441     1.5471     1.1970
  1 O      8.0000     8.0000    -0.0000     2.7441     1.5471     1.1970

  Mayer bond orders larger than 0.100000
B(  0-O ,  1-O ) :   1.5471 


                *******************************************
                * RELAXED MP2 DENSITY POPULATION ANALYSIS *
                *******************************************

------------------------------------------------------------------------------
                           ORCA POPULATION ANALYSIS
------------------------------------------------------------------------------
Input electron density              ... tlen.pmp2re
Input spin density                  ... tlen.rmp2re
BaseName (.gbw .S,...)              ... tlen

                    ********************************
                    * MULLIKEN POPULATION ANALYSIS *
                    ********************************

------------------------------------------
MULLIKEN ATOMIC CHARGES AND SPIN DENSITIES
------------------------------------------
   0 O :    0.000000    1.000000
   1 O :   -0.000000    1.000000
Sum of atomic charges       :   -0.0000000
Sum of atomic spin densities:    2.0000000

---------------------------------------------------
MULLIKEN REDUCED ORBITAL CHARGES AND SPIN DENSITIES
---------------------------------------------------
CHARGE
  0 O s       :     3.955873  s :     3.955873
      pz      :     1.484315  p :     3.987977
      px      :     1.019348
      py      :     1.484315
      dz2     :     0.007485  d :     0.051727
      dxz     :     0.013145
      dyz     :     0.004503
      dx2y2   :     0.013450
      dxy     :     0.013145
      f0      :     0.000523  f :     0.004423
      f+1     :     0.000713
      f-1     :     0.000318
      f+2     :     0.000687
      f-2     :     0.000307
      f+3     :     0.000984
      f-3     :     0.000892
  1 O s       :     3.955873  s :     3.955873
      pz      :     1.484315  p :     3.987977
      px      :     1.019348
      py      :     1.484315
      dz2     :     0.007485  d :     0.051727
      dxz     :     0.013145
      dyz     :     0.004503
      dx2y2   :     0.013450
      dxy     :     0.013145
      f0      :     0.000523  f :     0.004423
      f+1     :     0.000713
      f-1     :     0.000318
      f+2     :     0.000687
      f-2     :     0.000307
      f+3     :     0.000984
      f-3     :     0.000892

SPIN
  0 O s       :     0.010043  s :     0.010043
      pz      :     0.494994  p :     0.983888
      px      :    -0.006099
      py      :     0.494994
      dz2     :     0.001170  d :     0.006178
      dxz     :     0.001442
      dyz     :     0.001385
      dx2y2   :     0.000740
      dxy     :     0.001442
      f0      :     0.000026  f :    -0.000109
      f+1     :    -0.000058
      f-1     :     0.000068
      f+2     :    -0.000008
      f-2     :     0.000034
      f+3     :    -0.000120
      f-3     :    -0.000051
  1 O s       :     0.010043  s :     0.010043
      pz      :     0.494994  p :     0.983888
      px      :    -0.006099
      py      :     0.494994
      dz2     :     0.001170  d :     0.006178
      dxz     :     0.001442
      dyz     :     0.001385
      dx2y2   :     0.000740
      dxy     :     0.001442
      f0      :     0.000026  f :    -0.000109
      f+1     :    -0.000058
      f-1     :     0.000068
      f+2     :    -0.000008
      f-2     :     0.000034
      f+3     :    -0.000120
      f-3     :    -0.000051


                     *******************************
                     * LOEWDIN POPULATION ANALYSIS *
                     *******************************

-----------------------------------------
LOEWDIN ATOMIC CHARGES AND SPIN DENSITIES
-----------------------------------------
   0 O :    0.000000    1.000000
   1 O :   -0.000000    1.000000

--------------------------------------------------
LOEWDIN REDUCED ORBITAL CHARGES AND SPIN DENSITIES
--------------------------------------------------
CHARGE
  0 O s       :     3.776294  s :     3.776294
      pz      :     1.473270  p :     4.104629
      px      :     1.158090
      py      :     1.473270
      dz2     :     0.016886  d :     0.109196
      dxz     :     0.023077
      dyz     :     0.004500
      dx2y2   :     0.041657
      dxy     :     0.023077
      f0      :     0.000940  f :     0.009880
      f+1     :     0.001924
      f-1     :     0.000387
      f+2     :     0.001383
      f-2     :     0.000309
      f+3     :     0.003001
      f-3     :     0.001935
  1 O s       :     3.776294  s :     3.776294
      pz      :     1.473270  p :     4.104629
      px      :     1.158090
      py      :     1.473270
      dz2     :     0.016886  d :     0.109196
      dxz     :     0.023077
      dyz     :     0.004500
      dx2y2   :     0.041657
      dxy     :     0.023077
      f0      :     0.000940  f :     0.009880
      f+1     :     0.001924
      f-1     :     0.000387
      f+2     :     0.001383
      f-2     :     0.000309
      f+3     :     0.003001
      f-3     :     0.001935

SPIN
  0 O s       :     0.010437  s :     0.010437
      pz      :     0.487983  p :     0.968176
      px      :    -0.007790
      py      :     0.487983
      dz2     :     0.001481  d :     0.020108
      dxz     :     0.007785
      dyz     :     0.001384
      dx2y2   :     0.001674
      dxy     :     0.007785
      f0      :     0.000276  f :     0.001278
      f+1     :    -0.000039
      f-1     :     0.000110
      f+2     :     0.000409
      f-2     :     0.000035
      f+3     :    -0.000088
      f-3     :     0.000575
  1 O s       :     0.010437  s :     0.010437
      pz      :     0.487983  p :     0.968176
      px      :    -0.007790
      py      :     0.487983
      dz2     :     0.001481  d :     0.020108
      dxz     :     0.007785
      dyz     :     0.001384
      dx2y2   :     0.001674
      dxy     :     0.007785
      f0      :     0.000276  f :     0.001278
      f+1     :    -0.000039
      f-1     :     0.000110
      f+2     :     0.000409
      f-2     :     0.000035
      f+3     :    -0.000088
      f-3     :     0.000575


                      *****************************
                      * MAYER POPULATION ANALYSIS *
                      *****************************

  NA   - Mulliken gross atomic population
  ZA   - Total nuclear charge
  QA   - Mulliken gross atomic charge
  VA   - Mayer's total valence
  BVA  - Mayer's bonded valence
  FA   - Mayer's free valence

  ATOM       NA         ZA         QA         VA         BVA        FA
  0 O      8.0000     8.0000     0.0000     2.5836     1.5467     1.0369
  1 O      8.0000     8.0000    -0.0000     2.5836     1.5467     1.0369

  Mayer bond orders larger than 0.100000
B(  0-O ,  1-O ) :   1.5467 


----------------------------------
MP2 DERIVATIVE INTEGRAL GENERATION
----------------------------------

Input SCF Electron Density              ... tlen.scfp
Input Correlated Electron Density       ... tlen.pmp2re
Input Energy Weighted Density           ... tlen.wmp2.tmp
Input Wavefunction Amplitudes           ... tlen.mp2taa.tmp

Nuclear repulsion gradient              ... done (  0.0 sec)
HCore & Overlap gradient  (SHARK)       ... done (  0.0 sec)
Analytic two-electron gradient terms    ... 
  Batch handling in the gradient evaluation:
  General contraction                   ... not used
  Memory available                      ... 4092.3 MB
  Memory per occupied orbital in Q2     ...    0.4 MB
  Memory per occupied orbital in Q3     ...    0.0 MB
  Total memory requirement per |i>      ...    0.4 MB
  Number of orbitals treated per batch  ...     12
  Number of batches to be done          ...      1
done (  1.2 sec)

---------------------------------------
MP2 TOTAL ENERGY:     -150.092531645 Eh
---------------------------------------

The final MP2 gradient
  0:  -0.10495500   0.00000000   0.00000000
  1:   0.10495500  -0.00000000  -0.00000000

-----------------------------------
NORM OF THE MP2 GRADIENT:  0.148429
-----------------------------------

Maximum memory used throughout the entire MP2-calculation: 19.9 MB

-------------------------   --------------------
FINAL SINGLE POINT ENERGY      -150.092531645060
-------------------------   --------------------

------------------------------------------------------------------------------
                         ORCA GEOMETRY RELAXATION STEP
------------------------------------------------------------------------------

Reading the OPT-File                    .... done
Getting information on internals        .... done
Copying old internal coords+grads       .... done
Making the new internal coordinates     .... (2022 redundants) done
Validating the new internal coordinates .... (2022 redundants) done
Calculating the B-matrix                .... done
Calculating the G,G- and P matrices     .... done
Transforming gradient to internals      .... done
Projecting the internal gradient        .... done
Number of atoms                         ....   2
Number of internal coordinates          ....   1
Current Energy                          ....  -150.092531645 Eh
Current gradient norm                   ....     0.148428786 Eh/bohr
Maximum allowed component of the step   ....  0.300
Current trust radius                    ....  0.300
Evaluating the initial hessian          ....  (Almloef) done
Projecting the Hessian                  .... done
Forming the augmented Hessian           .... done
Diagonalizing the augmented Hessian     .... done
Last element of RFO vector              ....  0.979073472
Lowest eigenvalues of augmented Hessian:
 -0.021815612
Length of the computed step             ....  0.207856813
The final length of the internal step   ....  0.207856813
Converting the step to Cartesian space:
 Initial RMS(Int)=    0.2078568130
Transforming coordinates:
 Iter   0:  RMS(Cart)=    0.0600030935 RMS(Int)=    0.2078568130
done
Storing new coordinates                 .... done

                                .--------------------.
          ----------------------|Geometry convergence|-------------------------
          Item                value                   Tolerance       Converged
          ---------------------------------------------------------------------
          RMS gradient        0.1049550009            0.0001000000      NO
          MAX gradient        0.1049550009            0.0003000000      NO
          RMS step            0.2078568130            0.0020000000      NO
          MAX step            0.2078568130            0.0040000000      NO
          -------------------------------------------------------------------------
          ........................................................
          Max(Bonds)      0.1100      Max(Angles)    0.00
          Max(Dihed)        0.00      Max(Improp)    0.00
          ---------------------------------------------------------------------

The optimization has not yet converged - more geometry cycles are needed


    ---------------------------------------------------------------------------
                         Redundant Internal Coordinates
                            (Angstroem and degrees)

        Definition                    Value    dE/dq     Step     New-Value
    ----------------------------------------------------------------------------
     1. B(O   1,O   0)                1.4000  0.104955 -0.1100    1.2900   
    ----------------------------------------------------------------------------

Geometry step timings:
Preparation and reading OPT file:      0.000 s ( 3.896 %)
Internal coordinates            :      0.000 s ( 3.463 %)
B/P matrices and projection     :      0.000 s (12.338 %)
Hessian update/contruction      :      0.000 s (25.758 %)
Making the step                 :      0.000 s (25.108 %)
Converting the step to Cartesian:      0.000 s (10.173 %)
Storing new data                :      0.000 s ( 3.896 %)
Checking convergence            :      0.000 s ( 5.628 %)
Final printing                  :      0.000 s ( 9.740 %)
Total time                      :      0.000 s

Time for energy+gradient        :      3.688 s
Time for complete geometry iter :      3.703 s

         *************************************************************
         *                GEOMETRY OPTIMIZATION CYCLE   2            *
         *************************************************************
---------------------------------
CARTESIAN COORDINATES (ANGSTROEM)
---------------------------------
  O      0.054997    0.000000    0.000000
  O      1.345003    0.000000    0.000000

----------------------------
CARTESIAN COORDINATES (A.U.)
----------------------------
  NO LB      ZA    FRAG     MASS         X           Y           Z
   0 O     8.0000    0    15.999    0.103928    0.000000    0.000000
   1 O     8.0000    0    15.999    2.541688    0.000000    0.000000

--------------------------------
INTERNAL COORDINATES (ANGSTROEM)
--------------------------------
 O      0   0   0     0.000000000000     0.00000000     0.00000000
 O      1   0   0     1.290006911956     0.00000000     0.00000000

---------------------------
INTERNAL COORDINATES (A.U.)
---------------------------
 O      0   0   0     0.000000000000     0.00000000     0.00000000
 O      1   0   0     2.437759774462     0.00000000     0.00000000

------------------------------------------------------------------------------
                   ___                                                        
                  /   \      - P O W E R E D   B Y -                         
                 /     \                                                     
                 |  |  |   _    _      __       _____    __    __             
                 |  |  |  | |  | |    /  \     |  _  \  |  |  /  |          
                  \  \/   | |  | |   /    \    | | | |  |  | /  /          
                 / \  \   | |__| |  /  /\  \   | |_| |  |  |/  /          
                |  |  |   |  __  | /  /__\  \  |    /   |      \           
                |  |  |   | |  | | |   __   |  |    \   |  |\   \          
                \     /   | |  | | |  |  |  |  | |\  \  |  | \   \       
                 \___/    |_|  |_| |__|  |__|  |_| \__\ |__|  \__/        
                                                                              
                      - O R C A' S   B I G   F R I E N D -                    
                                      &                                       
                       - I N T E G R A L  F E E D E R -                       
                                                                              
 v1 FN, 2020, v2 2021, v3 2022-2024                                           
------------------------------------------------------------------------------


----------------------
SHARK INTEGRAL PACKAGE
----------------------

Number of atoms                             ...      2
Number of basis functions                   ...     62
Number of shells                            ...     22
Maximum angular momentum                    ...      3
Integral batch strategy                     ... SHARK/LIBINT Hybrid
RI-J (if used) integral strategy            ... SPLIT-RIJ (Revised 2003 algorithm where possible)
Printlevel                                  ...      1
Contraction scheme used                     ... SEGMENTED contraction
Prescreening option                         ... SCHWARTZ
   Thresh                                   ... 2.500e-11
   Tcut                                     ... 2.500e-12
   Tpresel                                  ... 2.500e-12 
Coulomb Range Separation                    ... NOT USED
Exchange Range Separation                   ... NOT USED
Multipole approximations                    ... NOT USED
Finite Nucleus Model                        ... NOT USED
CABS basis                                  ... NOT available
Auxiliary Coulomb fitting basis             ... NOT available
Auxiliary J/K fitting basis                 ... NOT available
Auxiliary Correlation fitting basis         ... NOT available
Auxiliary 'external' fitting basis          ... NOT available

Checking pre-screening integrals            ... done (  0.0 sec) Dimension = 22
   => SHARK Basis and OBASIS are compatible. Storing Pre-screening
Shell pair information
Shell pair cut-off parameter TPreSel        ...   2.5e-12
Total number of shell pairs                 ...       253
Shell pairs after pre-screening             ...       252
Total number of primitive shell pairs       ...       864
Primitive shell pairs kept                  ...       779
          la=0 lb=0:     54 shell pairs
          la=1 lb=0:     60 shell pairs
          la=1 lb=1:     21 shell pairs
          la=2 lb=0:     40 shell pairs
          la=2 lb=1:     24 shell pairs
          la=2 lb=2:     10 shell pairs
          la=3 lb=0:     20 shell pairs
          la=3 lb=1:     12 shell pairs
          la=3 lb=2:      8 shell pairs
          la=3 lb=3:      3 shell pairs

Checking whether 4 symmetric matrices of dimension 62 fit in memory
:Max Core in MB      =   4096.00
 MB in use           =      2.26
 MB left             =   4093.74
 MB needed           =      0.06
 Data fit in memory  = YES
Calculating Nuclear repulsion               ... done (  0.0 sec) ENN=     26.253612300303 Eh

Diagonalization of the overlap matrix:
Smallest eigenvalue                        ... 4.080e-03
Time for diagonalization                   ...    0.000 sec
Threshold for overlap eigenvalues          ... 1.000e-07
Number of eigenvalues below threshold      ... 0
Time for construction of square roots      ...    0.000 sec
Total time needed                          ...    0.001 sec

-------------------
DFT GRID GENERATION
-------------------

General Integration Accuracy     IntAcc      ... 4.388
Radial Grid Type                 RadialGrid  ... OptM3 with GC (2021)
Angular Grid (max. ang.)         AngularGrid ... 4 (Lebedev-302)
Angular grid pruning method      GridPruning ... 4 (adaptive)
Weight generation scheme         WeightScheme... mBecke (2022)
Basis function cutoff            BFCut       ... 1.0000e-11
Integration weight cutoff        WCut        ... 1.0000e-14
Partially contracted basis set               ... off
Rotationally invariant grid construction     ... off
Angular grids for H and He will be reduced by one unit

Total number of grid points                  ...    12260
Total number of batches                      ...      192
Average number of points per batch           ...       63
Average number of grid points per atom       ...     6130
Grids setup in   0.0 sec
Initializing property integral containers    ... done (  0.0 sec)

SHARK setup successfully completed in   0.1 seconds

Maximum memory used throughout the entire STARTUP-calculation: 12.6 MB
             **** ENERGY FILE WAS UPDATED (tlen.en.tmp) ****
Finished Guess after   0.0 sec
Maximum memory used throughout the entire GUESS-calculation: 6.5 MB
----------------------------------------D-I-I-S--------------------------------------------
Iteration    Energy (Eh)           Delta-E    RMSDP     MaxDP     DIISErr   Damp  Time(sec)
-------------------------------------------------------------------------------------------
               ***  Starting incremental Fock matrix formation  ***
    1    -149.6532535911233310     0.00e+00  1.98e-04  2.11e-03  2.63e-02  0.700   0.1
    2    -149.6549791182393392    -1.73e-03  1.78e-04  1.71e-03  2.05e-02  0.700   0.1
                               ***Turning on AO-DIIS***
    3    -149.6563387857923146    -1.36e-03  1.81e-04  1.56e-03  1.57e-02  0.700   0.1
    4    -149.6573854146383837    -1.05e-03  5.02e-04  4.37e-03  1.17e-02  0.000   0.1
                              *** Initializing SOSCF ***
---------------------------------------S-O-S-C-F--------------------------------------
Iteration    Energy (Eh)           Delta-E    RMSDP     MaxDP     MaxGrad    Time(sec)
--------------------------------------------------------------------------------------
    5    -149.6603948922923735    -3.01e-03  6.73e-05  7.80e-04  1.28e-03     0.1
               *** Restarting incremental Fock matrix formation ***
    6    -149.6604203575988379    -2.55e-05  2.49e-05  2.74e-04  6.42e-04     0.1
    7    -149.6604235136053660    -3.16e-06  1.92e-05  1.99e-04  2.68e-04     0.1
    8    -149.6604243280737023    -8.14e-07  1.71e-06  2.34e-05  6.37e-05     0.1
    9    -149.6604243409935577    -1.29e-08  9.58e-07  1.33e-05  2.62e-05     0.1
   10    -149.6604243431916359    -2.20e-09  4.47e-08  5.34e-07  1.09e-06     0.1
                 **** Energy Check signals convergence ****

               *****************************************************
               *                     SUCCESS                       *
               *           SCF CONVERGED AFTER  10 CYCLES          *
               *****************************************************

             **** ENERGY FILE WAS UPDATED (tlen.en.tmp) ****

----------------
TOTAL SCF ENERGY
----------------

Total Energy       :       -149.66042434321631 Eh           -4072.46719 eV

Components:
Nuclear Repulsion  :         26.25361230030294 Eh             714.39711 eV
Electronic Energy  :       -175.91403664351924 Eh           -4786.86430 eV
One Electron Energy:       -258.11126985379235 Eh           -7023.56472 eV
Two Electron Energy:         82.19723321027311 Eh            2236.70043 eV

Virial components:
Potential Energy   :       -298.85689280448059 Eh           -8132.30949 eV
Kinetic Energy     :        149.19646846126426 Eh            4059.84231 eV
Virial Ratio       :          2.00310969747969

---------------
SCF CONVERGENCE
---------------

  Last Energy change         ...    2.1981e-09  Tolerance :   1.0000e-08
  Last MAX-Density change    ...    5.3383e-07  Tolerance :   1.0000e-07
  Last RMS-Density change    ...    4.4665e-08  Tolerance :   5.0000e-09
  Last DIIS Error            ...    1.2759e-03  Tolerance :   5.0000e-07
  Last Orbital Gradient      ...    1.0943e-06  Tolerance :   1.0000e-05
  Last Orbital Rotation      ...    9.8560e-07  Tolerance :   1.0000e-05


----------------------
UHF SPIN CONTAMINATION
----------------------

Expectation value of <S**2>     :     2.053789
Ideal value S*(S+1) for S=1.0   :     2.000000
Deviation                       :     0.053789

Total SCF time: 0 days 0 hours 0 min 0 sec 
Finished LeanSCF after   0.9 sec

Maximum memory used throughout the entire LEANSCF-calculation: 12.2 MB

------------------------------------------------------------------------------
                                ORCA  MP2 
------------------------------------------------------------------------------

Freezing NCore=4 chemical core electrons
MP2 will be done in the AO integral direct mode
The Q1-step will be done using symmetric double matrices
Dimension of the basis                    ...   62
Memory devoted for MP2                    ... 4096 MB   
Memory needed for all in one shot         ...    7 MB
Number of MOs that can be treated together... 4432      
MP2 density construction                  ... relaxed
The MP2 gradient is requested => amplitudes will be stored on disk
Total number of MOs              ...    7
Number of MOs treated per batch  ...    7 
Number of batches necessary      ...    1 
OPERATORS   0/  0 PASS   0
OPERATORS   0/  1 PASS   0
Total number of MOs              ...    7
Number of MOs treated per batch  ...    5 
Number of batches necessary      ...    1 
OPERATORS   1/  0 PASS   0
OPERATORS   1/  1 PASS   0

Correlation energy components
 E2 and T2 for alpha/alpha pairs :     -0.058820608 Eh
 E2 and T2 for beta/beta   pairs :     -0.073673291 Eh
 E2 and T2 for alpha/beta  pairs :     -0.318003621 Eh

-----------------------------------------------
 MP2 CORRELATION ENERGY   :     -0.450497521 Eh
-----------------------------------------------


---------------------
MP2 DENSITY FORMATION
---------------------

Completing the external part of the density      ... done
Storing the unrelaxed density                    ... done

Calculating G(D)                                 ... done
Completing the Lagrangian                        ... done
Solving the Z-vector equations                   ... 
-------------------
SHARK CP-SCF DRIVER
-------------------

Dimension of the orbital basis          ...     62
Dimension of the CPSCF-problem          ...    862
Number of operators                     ...      2
Max. number of iterations               ...    128
Convergence Tolerance                   ... 1.0e-04
Number of perturbations                 ...      1
Perturbation type                       ... REAL

----------------------------
POPLE LINEAR EQUATION SOLVER
----------------------------

  ITERATION   0:   ||err||_max =   6.2978e-02 (   0.1 sec)
  ITERATION   1:   ||err||_max =   1.5948e-02 (   0.1 sec)
  ITERATION   2:   ||err||_max =   2.8846e-03 (   0.1 sec)
  ITERATION   3:   ||err||_max =   6.1580e-04 (   0.1 sec)
  ITERATION   4:   ||err||_max =   6.5954e-05 (   0.1 sec)
                                                 ... done
Finalizing the relaxed density                   ... done
Transforming P to the AO basis                   ... done
Storing the relaxed density                      ... done

------------------------------------
ENERGY WEIGHTED DENSITY FINALIZATION
------------------------------------

Gathering the parts of the W-matrix              ...                                                                                                           done
Forming the Z-density                            ... done
Transforming Z to the AO basis                   ... done
Calculating G(Z)                                 ... done
Finalizing the W-matrix                          ...                                                                                                           done
Transforming W to the AO basis and storing       ... done

----------------------------------
MP2 DERIVATIVE INTEGRAL GENERATION
----------------------------------

Input SCF Electron Density              ... tlen.scfp
Input Correlated Electron Density       ... tlen.pmp2re
Input Energy Weighted Density           ... tlen.wmp2.tmp
Input Wavefunction Amplitudes           ... tlen.mp2taa.tmp

Nuclear repulsion gradient              ... done (  0.0 sec)
HCore & Overlap gradient  (SHARK)       ... done (  0.0 sec)
Analytic two-electron gradient terms    ... 
  Batch handling in the gradient evaluation:
  General contraction                   ... not used
  Memory available                      ... 4092.2 MB
  Memory per occupied orbital in Q2     ...    0.4 MB
  Memory per occupied orbital in Q3     ...    0.0 MB
  Total memory requirement per |i>      ...    0.4 MB
  Number of orbitals treated per batch  ...     12
  Number of batches to be done          ...      1
done (  1.2 sec)

---------------------------------------
MP2 TOTAL ENERGY:     -150.110921864 Eh
---------------------------------------

The final MP2 gradient
  0:  -0.06249030  -0.00000000  -0.00000000
  1:   0.06249030   0.00000000   0.00000000

-----------------------------------
NORM OF THE MP2 GRADIENT:  0.088375
-----------------------------------

Maximum memory used throughout the entire MP2-calculation: 19.9 MB

-------------------------   --------------------
FINAL SINGLE POINT ENERGY      -150.110921864349
-------------------------   --------------------

------------------------------------------------------------------------------
                         ORCA GEOMETRY RELAXATION STEP
------------------------------------------------------------------------------

Reading the OPT-File                    .... done
Getting information on internals        .... done
Copying old internal coords+grads       .... done
Making the new internal coordinates     .... (2022 redundants) done
Validating the new internal coordinates .... (2022 redundants) done
Calculating the B-matrix                .... done
Calculating the G,G- and P matrices     .... done
Transforming gradient to internals      .... done
Projecting the internal gradient        .... done
Number of atoms                         ....   2
Number of internal coordinates          ....   1
Current Energy                          ....  -150.110921864 Eh
Current gradient norm                   ....     0.088374628 Eh/bohr
Maximum allowed component of the step   ....  0.300
Current trust radius                    ....  0.300
Updating the Hessian (BFGS)             .... done
Forming the augmented Hessian           .... done
Diagonalizing the augmented Hessian     .... done
Last element of RFO vector              ....  0.962558227
Lowest eigenvalues of augmented Hessian:
 -0.017598476
Length of the computed step             ....  0.281619334
The final length of the internal step   ....  0.281619334
Converting the step to Cartesian space:
[...]
      dyz     :     0.001338
      dx2y2   :     0.005493
      dxy     :     0.013671
      f0      :     0.000995  f :     0.005403
      f+1     :     0.000069
      f-1     :     0.000227
      f+2     :     0.001609
      f-2     :     0.000030
      f+3     :     0.000095
      f-3     :     0.002377
  1 O s       :     0.024238  s :     0.024238
      pz      :     0.480261  p :     0.933463
      px      :    -0.027059
      py      :     0.480261
      dz2     :     0.002723  d :     0.036896
      dxz     :     0.013671
      dyz     :     0.001338
      dx2y2   :     0.005493
      dxy     :     0.013671
      f0      :     0.000995  f :     0.005403
      f+1     :     0.000069
      f-1     :     0.000227
      f+2     :     0.001609
      f-2     :     0.000030
      f+3     :     0.000095
      f-3     :     0.002377


                      *****************************
                      * MAYER POPULATION ANALYSIS *
                      *****************************

  NA   - Mulliken gross atomic population
  ZA   - Total nuclear charge
  QA   - Mulliken gross atomic charge
  VA   - Mayer's total valence
  BVA  - Mayer's bonded valence
  FA   - Mayer's free valence

  ATOM       NA         ZA         QA         VA         BVA        FA
  0 O      8.0000     8.0000     0.0000     2.6551     1.6204     1.0346
  1 O      8.0000     8.0000    -0.0000     2.6551     1.6204     1.0346

  Mayer bond orders larger than 0.100000
B(  0-O ,  1-O ) :   1.6204 


                *******************************************
                * RELAXED MP2 DENSITY POPULATION ANALYSIS *
                *******************************************

------------------------------------------------------------------------------
                           ORCA POPULATION ANALYSIS
------------------------------------------------------------------------------
Input electron density              ... tlen.pmp2re
Input spin density                  ... tlen.rmp2re
BaseName (.gbw .S,...)              ... tlen

                    ********************************
                    * MULLIKEN POPULATION ANALYSIS *
                    ********************************

------------------------------------------
MULLIKEN ATOMIC CHARGES AND SPIN DENSITIES
------------------------------------------
   0 O :    0.000000    1.000000
   1 O :   -0.000000    1.000000
Sum of atomic charges       :   -0.0000000
Sum of atomic spin densities:    2.0000000

---------------------------------------------------
MULLIKEN REDUCED ORBITAL CHARGES AND SPIN DENSITIES
---------------------------------------------------
CHARGE
  0 O s       :     3.919542  s :     3.919542
      pz      :     1.476074  p :     4.001985
      px      :     1.049837
      py      :     1.476074
      dz2     :     0.008846  d :     0.071513
      dxz     :     0.020372
      dyz     :     0.004615
      dx2y2   :     0.017309
      dxy     :     0.020372
      f0      :     0.000810  f :     0.006959
      f+1     :     0.001087
      f-1     :     0.000369
      f+2     :     0.001163
      f-2     :     0.000345
      f+3     :     0.001582
      f-3     :     0.001604
  1 O s       :     3.919542  s :     3.919542
      pz      :     1.476074  p :     4.001985
      px      :     1.049837
      py      :     1.476074
      dz2     :     0.008846  d :     0.071513
      dxz     :     0.020372
      dyz     :     0.004615
      dx2y2   :     0.017309
      dxy     :     0.020372
      f0      :     0.000810  f :     0.006959
      f+1     :     0.001087
      f-1     :     0.000369
      f+2     :     0.001163
      f-2     :     0.000345
      f+3     :     0.001582
      f-3     :     0.001604

SPIN
  0 O s       :     0.016062  s :     0.016062
      pz      :     0.495730  p :     0.978857
      px      :    -0.012603
      py      :     0.495730
      dz2     :     0.001264  d :     0.005262
      dxz     :     0.000773
      dyz     :     0.001341
      dx2y2   :     0.001110
      dxy     :     0.000773
      f0      :     0.000031  f :    -0.000181
      f+1     :    -0.000096
      f-1     :     0.000067
      f+2     :     0.000002
      f-2     :     0.000027
      f+3     :    -0.000178
      f-3     :    -0.000034
  1 O s       :     0.016062  s :     0.016062
      pz      :     0.495730  p :     0.978857
      px      :    -0.012603
      py      :     0.495730
      dz2     :     0.001264  d :     0.005262
      dxz     :     0.000773
      dyz     :     0.001341
      dx2y2   :     0.001110
      dxy     :     0.000773
      f0      :     0.000031  f :    -0.000181
      f+1     :    -0.000096
      f-1     :     0.000067
      f+2     :     0.000002
      f-2     :     0.000027
      f+3     :    -0.000178
      f-3     :    -0.000034


                     *******************************
                     * LOEWDIN POPULATION ANALYSIS *
                     *******************************

-----------------------------------------
LOEWDIN ATOMIC CHARGES AND SPIN DENSITIES
-----------------------------------------
   0 O :   -0.000000    1.000000
   1 O :   -0.000000    1.000000

--------------------------------------------------
LOEWDIN REDUCED ORBITAL CHARGES AND SPIN DENSITIES
--------------------------------------------------
CHARGE
  0 O s       :     3.650787  s :     3.650787
      pz      :     1.447580  p :     4.155706
      px      :     1.260546
      py      :     1.447580
      dz2     :     0.021932  d :     0.173154
      dxz     :     0.045016
      dyz     :     0.004606
      dx2y2   :     0.056584
      dxy     :     0.045016
      f0      :     0.002254  f :     0.020353
      f+1     :     0.003221
      f-1     :     0.000609
      f+2     :     0.003569
      f-2     :     0.000354
      f+3     :     0.005133
      f-3     :     0.005214
  1 O s       :     3.650787  s :     3.650787
      pz      :     1.447580  p :     4.155706
      px      :     1.260546
      py      :     1.447580
      dz2     :     0.021932  d :     0.173154
      dxz     :     0.045016
      dyz     :     0.004606
      dx2y2   :     0.056584
      dxy     :     0.045016
      f0      :     0.002254  f :     0.020353
      f+1     :     0.003221
      f-1     :     0.000609
      f+2     :     0.003569
      f-2     :     0.000354
      f+3     :     0.005133
      f-3     :     0.005214

SPIN
  0 O s       :     0.012957  s :     0.012957
      pz      :     0.475846  p :     0.939367
      px      :    -0.012324
      py      :     0.475846
      dz2     :     0.001922  d :     0.042705
      dxz     :     0.018178
      dyz     :     0.001338
      dx2y2   :     0.003090
      dxy     :     0.018178
      f0      :     0.000961  f :     0.004970
      f+1     :    -0.000025
      f-1     :     0.000222
      f+2     :     0.001552
      f-2     :     0.000030
      f+3     :    -0.000061
      f-3     :     0.002291
  1 O s       :     0.012957  s :     0.012957
      pz      :     0.475846  p :     0.939367
      px      :    -0.012324
      py      :     0.475846
      dz2     :     0.001922  d :     0.042705
      dxz     :     0.018178
      dyz     :     0.001338
      dx2y2   :     0.003090
      dxy     :     0.018178
      f0      :     0.000961  f :     0.004970
      f+1     :    -0.000025
      f-1     :     0.000222
      f+2     :     0.001552
      f-2     :     0.000030
      f+3     :    -0.000061
      f-3     :     0.002291


                      *****************************
                      * MAYER POPULATION ANALYSIS *
                      *****************************

  NA   - Mulliken gross atomic population
  ZA   - Total nuclear charge
  QA   - Mulliken gross atomic charge
  VA   - Mayer's total valence
  BVA  - Mayer's bonded valence
  FA   - Mayer's free valence

  ATOM       NA         ZA         QA         VA         BVA        FA
  0 O      8.0000     8.0000     0.0000     2.5427     1.6153     0.9274
  1 O      8.0000     8.0000    -0.0000     2.5427     1.6153     0.9274

  Mayer bond orders larger than 0.100000
B(  0-O ,  1-O ) :   1.6153 


----------------------------------
MP2 DERIVATIVE INTEGRAL GENERATION
----------------------------------

Input SCF Electron Density              ... tlen.scfp
Input Correlated Electron Density       ... tlen.pmp2re
Input Energy Weighted Density           ... tlen.wmp2.tmp
Input Wavefunction Amplitudes           ... tlen.mp2taa.tmp

Nuclear repulsion gradient              ... done (  0.0 sec)
HCore & Overlap gradient  (SHARK)       ... done (  0.0 sec)
Analytic two-electron gradient terms    ... 
  Batch handling in the gradient evaluation:
  General contraction                   ... not used
  Memory available                      ... 4091.9 MB
  Memory per occupied orbital in Q2     ...    0.4 MB
  Memory per occupied orbital in Q3     ...    0.0 MB
  Total memory requirement per |i>      ...    0.4 MB
  Number of orbitals treated per batch  ...     12
  Number of batches to be done          ...      1
done (  1.2 sec)

---------------------------------------
MP2 TOTAL ENERGY:     -150.115264609 Eh
---------------------------------------

The final MP2 gradient
  0:  -0.00000049  -0.00000000  -0.00000000
  1:   0.00000049   0.00000000   0.00000000

-----------------------------------
NORM OF THE MP2 GRADIENT:  0.000001
-----------------------------------

Maximum memory used throughout the entire MP2-calculation: 20.2 MB

-------------------------   --------------------
FINAL SINGLE POINT ENERGY      -150.115264608965
-------------------------   --------------------

                                *** OPTIMIZATION RUN DONE ***


------------------------------------------------------------------------------
                              ORCA PROPERTY CALCULATIONS
------------------------------------------------------------------------------

GBWName                                 ... tlen.gbw
Number of atoms                         ...      2
Number of basis functions               ...     62
Max core memory                         ...   4096 MB

Electric properties:
Dipole moment                           ... YES
Quadrupole moment                       ...  NO
Static polarizability (Dipole/Dipole)   ...  NO
Static polarizability (Dipole/Quad.)    ...  NO
Static polarizability (Quad./Quad.)     ...  NO
Static polarizability (Velocity)        ...  NO
Static hyperpolarizability              ...  NO

Atomic electric properties:
Dipole moment                           ...  NO
Quadrupole moment                       ...  NO
Static polarizability                   ...  NO

Choice of electric origin               ... Center of mass
Position of electric origin             ...     1.322808     0.000000     0.000000

General magnetic properties:
Magnetizability                         ...  NO

EPR properties:
g-Tensor (aka g-matrix)                 ...  NO
Zero-Field splitting spin-orbit         ...  NO
Zero-field splitting spin-spin          ...  NO
Hyperfine couplings                     ...  NO (   0 nuclei)
Quadrupole couplings                    ...  NO (   0 nuclei)
Contact density                         ...  NO (   0 nuclei)

NMR properties:
Chemical shifts                         ...  NO (   0 nuclei)
Spin-rotation constants                 ...  NO (   0 nuclei)
Spin-spin couplings                     ...  NO (   0 nuclei,    0 pairs)

Choice of magnetic origin               ... GIAO
Position of magnetic origin             ...     0.000000     0.000000     0.000000

Properties with geometric perturbations:
SCF Hessian                             ...  NO
IR spectrum                             ...  NO
VCD spectrum                            ...  NO
X-ray spectroscopy properties:
SCF XES/XAS/RIXS spectra                ...  NO

SCF SOC stabilization energy            ...  NO
Diagonal Born-Oppenheimer correction    ...  NO

-------------
DIPOLE MOMENT
-------------

Method             : SCF
Type of density    : Electron Density
Multiplicity       :   3
Irrep              :   0
Energy             :  -149.6801973067921381 Eh
Basis              : AO
                                X                 Y                 Z
Electronic contribution:     -0.000000000       0.000000000       0.000000000
Nuclear contribution   :     -0.000000000       0.000000000       0.000000000
                        -----------------------------------------
Total Dipole Moment    :     -0.000000000       0.000000000       0.000000000
                        -----------------------------------------
Magnitude (a.u.)       :      0.000000000
Magnitude (Debye)      :      0.000000000



--------------------
Rotational spectrum 
--------------------
 
Rotational constants in cm-1:             0.000000             1.408933             1.408933 
Rotational constants in MHz :             0.000000         42238.750875         42238.750875 

Dipole components along the rotational axes: 
x,y,z [a.u.] :    -0.000000     0.000000     0.000000 
x,y,z [Debye]:    -0.000000     0.000000     0.000000 

 

-------------
DIPOLE MOMENT
-------------

Method             : MP2
Type of density    : Electron Density
Multiplicity       :   3
Level              : Unrelaxed density
Irrep              :   0
Energy             :     0.0000000000000000 Eh
Basis              : AO
                                X                 Y                 Z
Electronic contribution:     -0.000000000       0.000000000       0.000000000
Nuclear contribution   :     -0.000000000       0.000000000       0.000000000
                        -----------------------------------------
Total Dipole Moment    :     -0.000000000       0.000000000       0.000000000
                        -----------------------------------------
Magnitude (a.u.)       :      0.000000000
Magnitude (Debye)      :      0.000000000



--------------------
Rotational spectrum 
--------------------
 
Rotational constants in cm-1:             0.000000             1.408933             1.408933 
Rotational constants in MHz :             0.000000         42238.750875         42238.750875 

Dipole components along the rotational axes: 
x,y,z [a.u.] :    -0.000000     0.000000     0.000000 
x,y,z [Debye]:    -0.000000     0.000000     0.000000 

 

-------------
DIPOLE MOMENT
-------------

Method             : MP2
Type of density    : Electron Density
Multiplicity       :   3
Level              : Relaxed density
Irrep              :   0
Energy             :     0.0000000000000000 Eh
Basis              : AO
                                X                 Y                 Z
Electronic contribution:      0.000000000       0.000000000       0.000000000
Nuclear contribution   :     -0.000000000       0.000000000       0.000000000
                        -----------------------------------------
Total Dipole Moment    :     -0.000000000       0.000000000       0.000000000
                        -----------------------------------------
Magnitude (a.u.)       :      0.000000000
Magnitude (Debye)      :      0.000000000



--------------------
Rotational spectrum 
--------------------
 
Rotational constants in cm-1:             0.000000             1.408933             1.408933 
Rotational constants in MHz :             0.000000         42238.750875         42238.750875 

Dipole components along the rotational axes: 
x,y,z [a.u.] :    -0.000000     0.000000     0.000000 
x,y,z [Debye]:    -0.000000     0.000000     0.000000 

 

Dipole moment calculation done in   0.0 sec 

Maximum memory used throughout the entire PROP-calculation: 3.4 MB

--------------------------------
SUGGESTED CITATIONS FOR THIS RUN
--------------------------------

Below you find a list of papers that are relevant to this ORCA run
We neither can nor want to force you to cite these papers, but we appreciate if you do
You receive ORCA, which is the product of decades of hard work by many enthusiastic individuals, for free
The only thing we kindly ask in return is that you cite our papers,
We deeply appreciate it, if you show your appreciation for ORCA by not just citing the generic ORCA reference.

Please note that relegating all ORCA citations to the supporting information does *not* help us.
SI sections are not indexed - citations you put there will not count into any citation statistics
But we need these citations in order to attract the funding resources that allow us to do what we are doing

Therefore, if you are a happy ORCA user, please consider citing a few of the papers listed below in the main body of your paper

In addition to the list printed below, the program has created the file tlen.bibtex that contains the list in bibtex format
You can import this file easily into all common literature databanks and citation aid programs

It goes without saying that in many instances, there are alternative algorithms to achieve similar
results as the ones you have gotten from ORCA. It is, of course, also the case that in some instances
ORCA just re-implements algorithms worked out by others. We are fully aware of that and we are also
fully appreciative of our colleagues work. Hence this citation list should not be read as indicating
that the listed papers, which are focused on our own work, are the only ones worth citing. It simply
meant to make it easier for users to cite ORCA specific papers. It is not a substitute for doing your
own literature research and citing the relevant literature in a scientifically appropriate manner.

List of essential papers. We consider these as the minimum necessary citations

  1. Neese, F.
     Software update: the ORCA program system, version 6.0
     WIRES Comput. Molec. Sci. 2025 15(1), e70019
     doi.org/10.1002/wcms.70019

List of papers to cite with high priority. The work reported in these papers was absolutely
necessary for this run to complete.
Our perspective: the developers of density functionals and basis sets usually get cited in chemistry papers
Good! But without the algorithms to do something with them, the functionals or basis sets would not do anything.
Hence, in our opinion, the algorithm design and method developments papers are equally worthy of getting cited

  1. Neese, F.
     The SHARK Integral Generation and Digestion System
     J. Comp. Chem. 2022 44(3), 381
     doi.org/10.1002/jcc.26942

List of suggested additional citations. These are papers that are important in the 'surrounding' of 
of this run, or papers that preceded the highly important papers. If you like your results we are grateful for a citation.

  1. Neese, F.
     The ORCA program system
     WIRES Comput. Molec. Sci. 2012 2(1), 73-78
     doi.org/10.1002/wcms.81
  2. Neese, F.
     Software update: the ORCA program system, version 4.0
     WIRES Comput. Molec. Sci. 2018 8(1), 1-6
     doi.org/10.1002/wcms.1327
  3. Neese, F.; Wennmohs, F.; Becker, U.; Riplinger, C.
     The ORCA quantum chemistry program package
     J. Chem. Phys. 2020 152(22), 224108
     doi.org/10.1063/5.0004608
  4. Neese, F.
     Software update: The ORCA program system—Version 5.0
     WIRES Comput. Molec. Sci. 2022 12(1), e1606
     doi.org/10.1002/wcms.1606

List of optional additional citations

  1. Neese, F.
     Approximate second-order SCF convergence for spin unrestricted wavefunctions
     Chem. Phys. Lett. 2000 325(1-3), 93-98
     doi.org/10.1016/s0009-2614(00)00662-x

Timings for individual modules:

Sum of individual times          ...       25.361 sec (=   0.423 min)
Startup calculation              ...        0.843 sec (=   0.014 min)   3.3 %
SCF iterations                   ...        6.156 sec (=   0.103 min)  24.3 %
Property calculations            ...        0.054 sec (=   0.001 min)   0.2 %
MP2 module                       ...       18.293 sec (=   0.305 min)  72.1 %
Geometry relaxation              ...        0.015 sec (=   0.000 min)   0.1 %
                             ****ORCA TERMINATED NORMALLY****
TOTAL RUN TIME: 0 days 0 hours 0 minutes 25 seconds 600 msec
